
     Program BANDS v.6.6 starts on  7Jan2024 at 11:32:35 

     This program is part of the open-source Quantum ESPRESSO suite
     for quantum simulation of materials; please cite
         "P. Giannozzi et al., J. Phys.:Condens. Matter 21 395502 (2009);
         "P. Giannozzi et al., J. Phys.:Condens. Matter 29 465901 (2017);
          URL http://www.quantum-espresso.org", 
     in publications or presentations arising from this work. More details at
     http://www.quantum-espresso.org/quote

     Parallel version (MPI), running on     1 processors

     MPI processes distributed on     1 nodes
     Fft bands division:     nmany     =       1

     Reading xml data from directory:

     ./tmp/diamond.save/

     IMPORTANT: XC functional enforced from input :
     Exchange-correlation= PBE
                           (   1   4   3   4   0   0   0)
     Any further DFT definition will be discarded
     Please, verify this is what you really want


     G-vector sticks info
     --------------------
     sticks:   dense  smooth     PW     G-vecs:    dense   smooth      PW
     Sum         421     421    121                 5577     5577     941

     Reading collected, re-writing distributed wavefunctions
     high-symmetry point:  0.5000 0.0000 1.0000   x coordinate   0.0000
     high-symmetry point:  0.5000 0.5000 0.5000   x coordinate   0.7071
     high-symmetry point:  0.0000 0.0000 0.0000   x coordinate   1.5731
     high-symmetry point:  0.0000-1.0000 0.0000   x coordinate   2.5731
     high-symmetry point:  0.5000-1.0000 0.0000   x coordinate   3.0731
     high-symmetry point:  0.7500-0.7500 0.0000   x coordinate   3.4267

     Plottable bands (eV) written to file bandsdata.gnu
     Bands written to file bandsdata

 **************************************************************************

                    xk=(   0.50000,   0.00000,   1.00000  )

     zone border point and non-symmorphic group 
     symmetry decomposition not available

 **************************************************************************

 **************************************************************************

                    xk=(   0.50000,   0.03333,   0.96667  )

     zone border point and non-symmorphic group 
     symmetry decomposition not available

 **************************************************************************

 **************************************************************************

                    xk=(   0.50000,   0.06667,   0.93333  )

     zone border point and non-symmorphic group 
     symmetry decomposition not available

 **************************************************************************

 **************************************************************************

                    xk=(   0.50000,   0.10000,   0.90000  )

     zone border point and non-symmorphic group 
     symmetry decomposition not available

 **************************************************************************

 **************************************************************************

                    xk=(   0.50000,   0.13333,   0.86667  )

     zone border point and non-symmorphic group 
     symmetry decomposition not available

 **************************************************************************

 **************************************************************************

                    xk=(   0.50000,   0.16667,   0.83333  )

     zone border point and non-symmorphic group 
     symmetry decomposition not available

 **************************************************************************

 **************************************************************************

                    xk=(   0.50000,   0.20000,   0.80000  )

     zone border point and non-symmorphic group 
     symmetry decomposition not available

 **************************************************************************

 **************************************************************************

                    xk=(   0.50000,   0.23333,   0.76667  )

     zone border point and non-symmorphic group 
     symmetry decomposition not available

 **************************************************************************

 **************************************************************************

                    xk=(   0.50000,   0.26667,   0.73333  )

     zone border point and non-symmorphic group 
     symmetry decomposition not available

 **************************************************************************

 **************************************************************************

                    xk=(   0.50000,   0.30000,   0.70000  )

     zone border point and non-symmorphic group 
     symmetry decomposition not available

 **************************************************************************

 **************************************************************************

                    xk=(   0.50000,   0.33333,   0.66667  )

     zone border point and non-symmorphic group 
     symmetry decomposition not available

 **************************************************************************

 **************************************************************************

                    xk=(   0.50000,   0.36667,   0.63333  )

     zone border point and non-symmorphic group 
     symmetry decomposition not available

 **************************************************************************

 **************************************************************************

                    xk=(   0.50000,   0.40000,   0.60000  )

     zone border point and non-symmorphic group 
     symmetry decomposition not available

 **************************************************************************

 **************************************************************************

                    xk=(   0.50000,   0.43333,   0.56667  )

     zone border point and non-symmorphic group 
     symmetry decomposition not available

 **************************************************************************

 **************************************************************************

                    xk=(   0.50000,   0.46667,   0.53333  )

     zone border point and non-symmorphic group 
     symmetry decomposition not available

 **************************************************************************

 **************************************************************************

                    xk=(   0.50000,   0.50000,   0.50000  )

     zone border point and non-symmorphic group 
     symmetry decomposition not available

 **************************************************************************

 **************************************************************************

                    xk=(   0.47619,   0.47619,   0.47619  )

     point group C_3v (3m)  
     there are  3 classes
     the character table:

       E     2C3   3s_v 
A_1    1.00  1.00  1.00
A_2    1.00  1.00 -1.00
E      2.00 -1.00  0.00

     the symmetry operations in each class and the name of the first element:

     E        1
                                                                 
     2C3      2    3
                                                                 
     3s_v     4    5    6
                                                                 

     Band symmetry, C_3v (3m)   point group:

     e(  1 -  1) =     -2.54585  eV     1   --> A_1  L_1       
     e(  2 -  2) =      0.11646  eV     1   --> A_1  L_1       
     e(  3 -  4) =     10.49952  eV     2   --> E    L_3       
     e(  5 -  6) =     21.78686  eV     2   --> E    L_3       
     e(  7 -  7) =     22.11099  eV     1   --> A_1  L_1       
     e(  8 -  8) =     28.95751  eV     1   --> A_1  L_1       
     e(  9 -  9) =     35.08046  eV     1   --> A_1  L_1       
     e( 10 - 10) =     37.44023  eV     1   --> A_1  L_1       

 **************************************************************************

 **************************************************************************

                    xk=(   0.45238,   0.45238,   0.45238  )

     Band symmetry, C_3v (3m)   point group:

     e(  1 -  1) =     -2.90053  eV     1   --> A_1  L_1       
     e(  2 -  2) =      0.54865  eV     1   --> A_1  L_1       
     e(  3 -  4) =     10.52931  eV     2   --> E    L_3       
     e(  5 -  6) =     21.78163  eV     2   --> E    L_3       
     e(  7 -  7) =     22.09560  eV     1   --> A_1  L_1       
     e(  8 -  8) =     28.93388  eV     1   --> A_1  L_1       
     e(  9 -  9) =     34.95213  eV     1   --> A_1  L_1       
     e( 10 - 10) =     37.58621  eV     1   --> A_1  L_1       

 **************************************************************************

 **************************************************************************

                    xk=(   0.42857,   0.42857,   0.42857  )

     Band symmetry, C_3v (3m)   point group:

     e(  1 -  1) =     -3.34109  eV     1   --> A_1  L_1       
     e(  2 -  2) =      1.11803  eV     1   --> A_1  L_1       
     e(  3 -  4) =     10.57895  eV     2   --> E    L_3       
     e(  5 -  6) =     21.77079  eV     2   --> E    L_3       
     e(  7 -  7) =     22.06975  eV     1   --> A_1  L_1       
     e(  8 -  8) =     28.89223  eV     1   --> A_1  L_1       
     e(  9 -  9) =     34.78115  eV     1   --> A_1  L_1       
     e( 10 - 10) =     37.78442  eV     1   --> A_1  L_1       

 **************************************************************************

 **************************************************************************

                    xk=(   0.40476,   0.40476,   0.40476  )

     Band symmetry, C_3v (3m)   point group:

     e(  1 -  1) =     -3.80555  eV     1   --> A_1  L_1       
     e(  2 -  2) =      1.76254  eV     1   --> A_1  L_1       
     e(  3 -  4) =     10.64829  eV     2   --> E    L_3       
     e(  5 -  6) =     21.75127  eV     2   --> E    L_3       
     e(  7 -  7) =     22.03304  eV     1   --> A_1  L_1       
     e(  8 -  8) =     28.82992  eV     1   --> A_1  L_1       
     e(  9 -  9) =     34.60289  eV     1   --> A_1  L_1       
     e( 10 - 10) =     37.99960  eV     1   --> A_1  L_1       

 **************************************************************************

 **************************************************************************

                    xk=(   0.38095,   0.38095,   0.38095  )

     Band symmetry, C_3v (3m)   point group:

     e(  1 -  1) =     -4.26805  eV     1   --> A_1  L_1       
     e(  2 -  2) =      2.45461  eV     1   --> A_1  L_1       
     e(  3 -  4) =     10.73711  eV     2   --> E    L_3       
     e(  5 -  6) =     21.71943  eV     2   --> E    L_3       
     e(  7 -  7) =     21.98446  eV     1   --> A_1  L_1       
     e(  8 -  8) =     28.74415  eV     1   --> A_1  L_1       
     e(  9 -  9) =     34.43728  eV     1   --> A_1  L_1       
     e( 10 - 10) =     37.52714  eV     1   -->   ?

 **************************************************************************

 **************************************************************************

                    xk=(   0.35714,   0.35714,   0.35714  )

     Band symmetry, C_3v (3m)   point group:

     e(  1 -  1) =     -4.71637  eV     1   --> A_1  L_1       
     e(  2 -  2) =      3.18103  eV     1   --> A_1  L_1       
     e(  3 -  4) =     10.84490  eV     2   --> E    L_3       
     e(  5 -  6) =     21.66927  eV     2   --> E    L_3       
     e(  7 -  7) =     21.92288  eV     1   --> A_1  L_1       
     e(  8 -  8) =     28.63231  eV     1   --> A_1  L_1       
     e(  9 -  9) =     34.29674  eV     1   --> A_1  L_1       
     e( 10 - 10) =     37.06236  eV     1   -->   ?

 **************************************************************************

 **************************************************************************

                    xk=(   0.33333,   0.33333,   0.33333  )

     Band symmetry, C_3v (3m)   point group:

     e(  1 -  1) =     -5.14426  eV     1   --> A_1  L_1       
     e(  2 -  2) =      3.93347  eV     1   --> A_1  L_1       
     e(  3 -  4) =     10.97036  eV     2   --> E    L_3       
     e(  5 -  6) =     21.59518  eV     2   --> E    L_3       
     e(  7 -  7) =     21.84608  eV     1   --> A_1  L_1       
     e(  8 -  8) =     28.49233  eV     1   --> A_1  L_1       
     e(  9 -  9) =     34.18671  eV     1   --> A_1  L_1       
     e( 10 - 10) =     36.64743  eV     1   -->   ?

 **************************************************************************

 **************************************************************************

                    xk=(   0.30952,   0.30952,   0.30952  )

     Band symmetry, C_3v (3m)   point group:

     e(  1 -  1) =     -5.54818  eV     1   --> A_1  L_1       
     e(  2 -  2) =      4.70836  eV     1   --> A_1  L_1       
     e(  3 -  4) =     11.11625  eV     2   --> E    L_3       
     e(  5 -  6) =     21.49499  eV     2   --> E    L_3       
     e(  7 -  7) =     21.75355  eV     1   --> A_1  L_1       
     e(  8 -  8) =     28.33558  eV     1   --> A_1  L_1       
     e(  9 -  9) =     34.10473  eV     1   --> A_1  L_1       
     e( 10 - 10) =     36.30363  eV     1   -->   ?

 **************************************************************************

 **************************************************************************

                    xk=(   0.28571,   0.28571,   0.28571  )

     Band symmetry, C_3v (3m)   point group:

     e(  1 -  1) =     -5.92597  eV     1   --> A_1  L_1       
     e(  2 -  2) =      5.49883  eV     1   --> A_1  L_1       
     e(  3 -  4) =     11.27704  eV     2   --> E    L_3       
     e(  5 -  6) =     21.36252  eV     2   --> E    L_3       
     e(  7 -  7) =     21.64198  eV     1   --> A_1  L_1       
     e(  8 -  8) =     28.15331  eV     1   --> A_1  L_1       
     e(  9 -  9) =     34.04018  eV     1   --> A_1  L_1       
     e( 10 - 10) =     36.04518  eV     1   -->   ?

 **************************************************************************

 **************************************************************************

                    xk=(   0.26190,   0.26190,   0.26190  )

     Band symmetry, C_3v (3m)   point group:

     e(  1 -  1) =     -6.27606  eV     1   --> A_1  L_1       
     e(  2 -  2) =      6.30393  eV     1   --> A_1  L_1       
     e(  3 -  4) =     11.45339  eV     2   --> E    L_3       
     e(  5 -  6) =     21.19684  eV     2   --> E    L_3       
     e(  7 -  7) =     21.50864  eV     1   --> A_1  L_1       
     e(  8 -  8) =     27.95935  eV     1   --> A_1  L_1       
     e(  9 -  9) =     33.98229  eV     1   --> A_1  L_1       
     e( 10 - 10) =     35.88266  eV     1   -->   ?

 **************************************************************************

 **************************************************************************

                    xk=(   0.23810,   0.23810,   0.23810  )

     Band symmetry, C_3v (3m)   point group:

     e(  1 -  1) =     -6.59784  eV     1   --> A_1  L_1       
     e(  2 -  2) =      7.11509  eV     1   --> A_1  L_1       
     e(  3 -  4) =     11.64350  eV     2   --> E    L_3       
     e(  5 -  6) =     20.99756  eV     2   --> E    L_3       
     e(  7 -  7) =     21.34932  eV     1   --> A_1  L_1       
     e(  8 -  8) =     27.75454  eV     1   --> A_1  L_1       
     e(  9 -  9) =     33.91053  eV     1   --> A_1  L_1       
     e( 10 - 10) =     35.82233  eV     1   -->   ?

 **************************************************************************

 **************************************************************************

                    xk=(   0.21429,   0.21429,   0.21429  )

     Band symmetry, C_3v (3m)   point group:

     e(  1 -  1) =     -6.89038  eV     1   --> A_1  L_1       
     e(  2 -  2) =      7.92971  eV     1   --> A_1  L_1       
     e(  3 -  4) =     11.84517  eV     2   --> E    L_3       
     e(  5 -  6) =     20.76790  eV     2   --> E    L_3       
     e(  7 -  7) =     21.16235  eV     1   --> A_1  L_1       
     e(  8 -  8) =     27.55066  eV     1   --> A_1  L_1       
     e(  9 -  9) =     33.81266  eV     1   --> A_1  L_1       
     e( 10 - 10) =     35.86691  eV     1   -->   ?

 **************************************************************************

 **************************************************************************

                    xk=(   0.19048,   0.19048,   0.19048  )

     Band symmetry, C_3v (3m)   point group:

     e(  1 -  1) =     -7.15292  eV     1   --> A_1  L_1       
     e(  2 -  2) =      8.74115  eV     1   --> A_1  L_1       
     e(  3 -  4) =     12.05548  eV     2   --> E    L_3       
     e(  5 -  6) =     20.51427  eV     2   --> E    L_3       
     e(  7 -  7) =     20.94513  eV     1   --> A_1  L_1       
     e(  8 -  8) =     27.35299  eV     1   --> A_1  L_1       
     e(  9 -  9) =     33.68201  eV     1   --> A_1  L_1       
     e( 10 - 10) =     36.01604  eV     1   -->   ?

 **************************************************************************

 **************************************************************************

                    xk=(   0.16667,   0.16667,   0.16667  )

     Band symmetry, C_3v (3m)   point group:

     e(  1 -  1) =     -7.38559  eV     1   --> A_1  L_1       
     e(  2 -  2) =      9.54063  eV     1   --> A_1  L_1       
     e(  3 -  4) =     12.27018  eV     2   --> E    L_3       
     e(  5 -  6) =     20.24171  eV     2   --> E    L_3       
     e(  7 -  7) =     20.69337  eV     1   --> A_1  L_1       
     e(  8 -  8) =     27.16751  eV     1   --> A_1  L_1       
     e(  9 -  9) =     33.51492  eV     1   --> A_1  L_1       
     e( 10 - 10) =     36.26671  eV     1   -->   ?

 **************************************************************************

 **************************************************************************

                    xk=(   0.14286,   0.14286,   0.14286  )

     Band symmetry, C_3v (3m)   point group:

     e(  1 -  1) =     -7.58774  eV     1   --> A_1  L_1       
     e(  2 -  2) =     10.31896  eV     1   --> A_1  L_1       
     e(  3 -  4) =     12.48453  eV     2   --> E    L_3       
     e(  5 -  6) =     19.96407  eV     2   --> E    L_3       
     e(  7 -  7) =     20.41080  eV     1   --> A_1  L_1       
     e(  8 -  8) =     26.99941  eV     1   --> A_1  L_1       
     e(  9 -  9) =     33.32343  eV     1   --> A_1  L_1       
     e( 10 - 10) =     36.61457  eV     1   -->   ?

 **************************************************************************

 **************************************************************************

                    xk=(   0.11905,   0.11905,   0.11905  )

     Band symmetry, C_3v (3m)   point group:

     e(  1 -  1) =     -7.75917  eV     1   --> A_1  L_1       
     e(  2 -  2) =     11.06174  eV     1   --> A_1  L_1       
     e(  3 -  4) =     12.69174  eV     2   --> E    L_3       
     e(  5 -  6) =     19.69140  eV     2   --> E    L_3       
     e(  7 -  7) =     20.09912  eV     1   --> A_1  L_1       
     e(  8 -  8) =     26.85271  eV     1   --> A_1  L_1       
     e(  9 -  9) =     33.12216  eV     1   --> A_1  L_1       
     e( 10 - 10) =     37.05390  eV     1   -->   ?

 **************************************************************************

 **************************************************************************

                    xk=(   0.09524,   0.09524,   0.09524  )

     Band symmetry, C_3v (3m)   point group:

     e(  1 -  1) =     -7.89965  eV     1   --> A_1  L_1       
     e(  2 -  2) =     11.75111  eV     1   --> A_1  L_1       
     e(  3 -  4) =     12.88364  eV     2   --> E    L_3       
     e(  5 -  6) =     19.43851  eV     2   --> E    L_3       
     e(  7 -  7) =     19.77423  eV     1   --> A_1  L_1       
     e(  8 -  8) =     26.73037  eV     1   --> A_1  L_1       
     e(  9 -  9) =     32.92937  eV     1   --> A_1  L_1       
     e( 10 - 10) =     37.57845  eV     1   -->   ?

 **************************************************************************

 **************************************************************************

                    xk=(   0.07143,   0.07143,   0.07143  )

     Band symmetry, C_3v (3m)   point group:

     e(  1 -  1) =     -8.00904  eV     1   --> A_1  L_1       
     e(  2 -  2) =     12.35981  eV     1   --> A_1  L_1       
     e(  3 -  4) =     13.05028  eV     2   --> E    L_3       
     e(  5 -  6) =     19.21936  eV     2   --> E    L_3       
     e(  7 -  7) =     19.45481  eV     1   --> A_1  L_1       
     e(  8 -  8) =     26.63425  eV     1   --> A_1  L_1       
     e(  9 -  9) =     32.76104  eV     1   --> A_1  L_1       
     e( 10 - 10) =     38.18121  eV     1   -->   ?

 **************************************************************************

 **************************************************************************

                    xk=(   0.04762,   0.04762,   0.04762  )

     Band symmetry, C_3v (3m)   point group:

     e(  1 -  1) =     -8.08724  eV     1   --> A_1  L_1       
     e(  2 -  2) =     12.85132  eV     1   --> A_1  L_1       
     e(  3 -  4) =     13.18128  eV     2   --> E    L_3       
     e(  5 -  6) =     19.04870  eV     2   --> E    L_3       
     e(  7 -  7) =     19.17375  eV     1   --> A_1  L_1       
     e(  8 -  8) =     26.56567  eV     1   --> A_1  L_1       
     e(  9 -  9) =     32.63084  eV     1   --> A_1  L_1       
     e( 10 - 10) =     38.85281  eV     1   -->   ?

 **************************************************************************

 **************************************************************************

                    xk=(   0.02381,   0.02381,   0.02381  )

     Band symmetry, C_3v (3m)   point group:

     e(  1 -  1) =     -8.13418  eV     1   --> A_1  L_1       
     e(  2 -  2) =     13.17871  eV     1   --> A_1  L_1       
     e(  3 -  4) =     13.26504  eV     2   --> E    L_3       
     e(  5 -  6) =     18.93985  eV     2   --> E    L_3       
     e(  7 -  7) =     18.97505  eV     1   --> A_1  L_1       
     e(  8 -  8) =     26.52456  eV     1   --> A_1  L_1       
     e(  9 -  9) =     32.54876  eV     1   --> A_1  L_1       
     e( 10 - 10) =     39.56938  eV     1   -->   ?

 **************************************************************************

 **************************************************************************

                    xk=(   0.00000,   0.00000,   0.00000  )

     point group O_h (m-3m) 
     there are 10 classes
     the character table:

       E     8C3   3C2   6C4   6C2'  i     8S6   3s_h  6S4   6s_d 
A_1g   1.00  1.00  1.00  1.00  1.00  1.00  1.00  1.00  1.00  1.00
A_2g   1.00  1.00  1.00 -1.00 -1.00  1.00  1.00  1.00 -1.00 -1.00
E_g    2.00 -1.00  2.00  0.00  0.00  2.00 -1.00  2.00  0.00  0.00
T_1g   3.00  0.00 -1.00  1.00 -1.00  3.00  0.00 -1.00  1.00 -1.00
T_2g   3.00  0.00 -1.00 -1.00  1.00  3.00  0.00 -1.00 -1.00  1.00
A_1u   1.00  1.00  1.00  1.00  1.00 -1.00 -1.00 -1.00 -1.00 -1.00
A_2u   1.00  1.00  1.00 -1.00 -1.00 -1.00 -1.00 -1.00  1.00  1.00
E_u    2.00 -1.00  2.00  0.00  0.00 -2.00  1.00 -2.00  0.00  0.00
T_1u   3.00  0.00 -1.00  1.00 -1.00 -3.00  0.00  1.00 -1.00  1.00
T_2u   3.00  0.00 -1.00 -1.00  1.00 -3.00  0.00  1.00  1.00 -1.00

     the symmetry operations in each class and the name of the first element:

     E        1
                                                                 
     8C3     17   19   20   18   24   21   22   23
                                                                 
     3C2      2    4    3
                                                                 
     6C4      7    8   15   16   12   11
                                                                 
     6C2'     5    6   14   13   10    9
                                                                 
     i       25
                                                                 
     8S6     41   43   44   42   48   45   46   47
                                                                 
     3s_h    26   28   27
                                                                 
     6S4     31   32   39   40   36   35
                                                                 
     6s_d    29   30   38   37   34   33
                                                                 

     Band symmetry, O_h (m-3m)  point group:

     e(  1 -  1) =     -8.15006  eV     1   --> A_1g G_1   G_1+
     e(  2 -  4) =     13.29077  eV     3   --> T_2g G_25' G_5+
     e(  5 -  7) =     18.89900  eV     3   --> T_1u G_15  G_4-
     e(  8 -  8) =     26.51029  eV     1   --> A_2u G_2'  G_2-
     e(  9 -  9) =     32.52063  eV     1   --> A_1g G_1   G_1+
     e( 10 - 10) =     40.08933  eV     1   -->   ?

 **************************************************************************

 **************************************************************************

                    xk=(   0.00000,  -0.03333,   0.00000  )

     point group C_4v (4mm) 
     there are  5 classes
     the character table:

       E     2C4   C2    2s_v  2s_d 
A_1    1.00  1.00  1.00  1.00  1.00
A_2    1.00  1.00  1.00 -1.00 -1.00
B_1    1.00 -1.00  1.00  1.00 -1.00
B_2    1.00 -1.00  1.00 -1.00  1.00
E      2.00  0.00 -2.00  0.00  0.00

     the symmetry operations in each class and the name of the first element:

     E        1
                                                                 
     2C4      3    4
                                                                 
     C2       2
                                                                 
     2s_v     5    6
                                                                 
     2s_d     7    8
                                                                 

     Band symmetry, C_4v (4mm)  point group:

     e(  1 -  1) =     -8.13961  eV     1   --> A_1  G_1 D_1   
     e(  2 -  3) =     13.25012  eV     2   --> E    G_5 D_5   
     e(  4 -  4) =     13.26833  eV     1   --> B_2  G_4 D_2'  
     e(  5 -  5) =     18.89407  eV     1   --> A_1  G_1 D_1   
     e(  6 -  7) =     18.95478  eV     2   --> E    G_5 D_5   
     e(  8 -  8) =     26.51961  eV     1   --> B_2  G_4 D_2'  
     e(  9 -  9) =     32.53913  eV     1   --> A_1  G_1 D_1   
     e( 10 - 10) =     39.43096  eV     1   --> B_2  G_4 D_2'  

 **************************************************************************

 **************************************************************************

                    xk=(   0.00000,  -0.06667,   0.00000  )

     Band symmetry, C_4v (4mm)  point group:

     e(  1 -  1) =     -8.10894  eV     1   --> A_1  G_1 D_1   
     e(  2 -  3) =     13.12331  eV     2   --> E    G_5 D_5   
     e(  4 -  4) =     13.19195  eV     1   --> B_2  G_4 D_2'  
     e(  5 -  5) =     18.86941  eV     1   --> A_1  G_1 D_1   
     e(  6 -  7) =     19.10767  eV     2   --> E    G_5 D_5   
     e(  8 -  8) =     26.54441  eV     1   --> B_2  G_4 D_2'  
     e(  9 -  9) =     32.59389  eV     1   --> A_1  G_1 D_1   
     e( 10 - 10) =     38.49675  eV     1   --> B_2  G_4 D_2'  

 **************************************************************************

 **************************************************************************

                    xk=(   0.00000,  -0.10000,   0.00000  )

     Band symmetry, C_4v (4mm)  point group:

     e(  1 -  1) =     -8.05783  eV     1   --> A_1  G_1 D_1   
     e(  2 -  3) =     12.92500  eV     2   --> E    G_5 D_5   
     e(  4 -  4) =     13.06400  eV     1   --> B_2  G_4 D_2'  
     e(  5 -  5) =     18.82916  eV     1   --> A_1  G_1 D_1   
     e(  6 -  7) =     19.34800  eV     2   --> E    G_5 D_5   
     e(  8 -  8) =     26.57874  eV     1   --> B_2  G_4 D_2'  
     e(  9 -  9) =     32.68403  eV     1   --> A_1  G_1 D_1   
     e( 10 - 10) =     37.56145  eV     1   --> B_2  G_4 D_2'  

 **************************************************************************

 **************************************************************************

                    xk=(   0.00000,  -0.13333,   0.00000  )

     Band symmetry, C_4v (4mm)  point group:

     e(  1 -  1) =     -7.98631  eV     1   --> A_1  G_1 D_1   
     e(  2 -  3) =     12.67409  eV     2   --> E    G_5 D_5   
     e(  4 -  4) =     12.89148  eV     1   --> B_2  G_4 D_2'  
     e(  5 -  5) =     18.77450  eV     1   --> A_1  G_1 D_1   
     e(  6 -  7) =     19.65969  eV     2   --> E    G_5 D_5   
     e(  8 -  8) =     26.61491  eV     1   --> B_2  G_4 D_2'  
     e(  9 -  9) =     32.80775  eV     1   --> A_1  G_1 D_1   
     e( 10 - 10) =     36.66264  eV     1   --> B_2  G_4 D_2'  

 **************************************************************************

 **************************************************************************

                    xk=(   0.00000,  -0.16667,   0.00000  )

     Band symmetry, C_4v (4mm)  point group:

     e(  1 -  1) =     -7.89441  eV     1   --> A_1  G_1 D_1   
     e(  2 -  3) =     12.38471  eV     2   --> E    G_5 D_5   
     e(  4 -  4) =     12.67494  eV     1   --> B_2  G_4 D_2'  
     e(  5 -  5) =     18.70696  eV     1   --> A_1  G_1 D_1   
     e(  6 -  7) =     20.02699  eV     2   --> E    G_5 D_5   
     e(  8 -  8) =     26.63892  eV     1   --> B_2  G_4 D_2'  
     e(  9 -  9) =     32.96266  eV     1   --> A_1  G_1 D_1   
     e( 10 - 10) =     35.82307  eV     1   --> B_2  G_4 D_2'  

 **************************************************************************

 **************************************************************************

                    xk=(   0.00000,  -0.20000,   0.00000  )

     Band symmetry, C_4v (4mm)  point group:

     e(  1 -  1) =     -7.78216  eV     1   --> A_1  G_1 D_1   
     e(  2 -  3) =     12.06985  eV     2   --> E    G_5 D_5   
     e(  4 -  4) =     12.41761  eV     1   --> B_2  G_4 D_2'  
     e(  5 -  5) =     18.63080  eV     1   --> A_1  G_1 D_1   
     e(  6 -  7) =     20.43677  eV     2   --> E    G_5 D_5   
     e(  8 -  8) =     26.63366  eV     1   --> B_2  G_4 D_2'  
     e(  9 -  9) =     33.14617  eV     1   --> A_1  G_1 D_1   
     e( 10 - 10) =     35.06374  eV     1   --> B_2  G_4 D_2'  

 **************************************************************************

 **************************************************************************

                    xk=(   0.00000,  -0.23333,   0.00000  )

     Band symmetry, C_4v (4mm)  point group:

     e(  1 -  1) =     -7.64967  eV     1   --> A_1  G_1 D_1   
     e(  2 -  3) =     11.73967  eV     2   --> E    G_5 D_5   
     e(  4 -  4) =     12.12286  eV     1   --> B_2  G_4 D_2'  
     e(  5 -  5) =     18.54291  eV     1   --> A_1  G_1 D_1   
     e(  6 -  7) =     20.87829  eV     2   --> E    G_5 D_5   
     e(  8 -  8) =     26.57926  eV     1   --> B_2  G_4 D_2'  
     e(  9 -  9) =     33.35434  eV     1   --> A_1  G_1 D_1   
     e( 10 - 10) =     34.40557  eV     1   --> B_2  G_4 D_2'  

 **************************************************************************

 **************************************************************************

                    xk=(   0.00000,  -0.26667,   0.00000  )

     Band symmetry, C_4v (4mm)  point group:

     e(  1 -  1) =     -7.49697  eV     1   --> A_1  G_1 D_1   
     e(  2 -  3) =     11.40111  eV     2   --> E    G_5 D_5   
     e(  4 -  4) =     11.79398  eV     1   --> B_2  G_4 D_2'  
     e(  5 -  5) =     18.44949  eV     1   --> A_1  G_1 D_1   
     e(  6 -  7) =     21.34359  eV     2   --> E    G_5 D_5   
     e(  8 -  8) =     26.45539  eV     1   --> B_2  G_4 D_2'  
     e(  9 -  9) =     33.58397  eV     1   --> A_1  G_1 D_1   
     e( 10 - 10) =     33.86792  eV     1   --> B_2  G_4 D_2'  

 **************************************************************************

 **************************************************************************

                    xk=(   0.00000,  -0.30000,   0.00000  )

     Band symmetry, C_4v (4mm)  point group:

     e(  1 -  1) =     -7.32420  eV     1   --> A_1  G_1 D_1   
     e(  2 -  3) =     11.06161  eV     2   --> E    G_5 D_5   
     e(  4 -  4) =     11.43416  eV     1   --> B_2  G_4 D_2'  
     e(  5 -  5) =     18.34979  eV     1   --> A_1  G_1 D_1   
     e(  6 -  7) =     21.82634  eV     2   --> E    G_5 D_5   
     e(  8 -  8) =     26.24724  eV     1   --> B_2  G_4 D_2'  
     e(  9 -  9) =     33.46473  eV     1   --> B_2  G_4 D_2'  
     e( 10 - 10) =     33.83046  eV     1   --> A_1  G_1 D_1   

 **************************************************************************

 **************************************************************************

                    xk=(   0.00000,  -0.33333,   0.00000  )

     Band symmetry, C_4v (4mm)  point group:

     e(  1 -  1) =     -7.13162  eV     1   --> A_1  G_1 D_1   
     e(  2 -  3) =     10.72467  eV     2   --> E    G_5 D_5   
     e(  4 -  4) =     11.04626  eV     1   --> B_2  G_4 D_2'  
     e(  5 -  5) =     18.24610  eV     1   --> A_1  G_1 D_1   
     e(  6 -  7) =     22.32156  eV     2   --> E    G_5 D_5   
     e(  8 -  8) =     25.94899  eV     1   --> B_2  G_4 D_2'  
     e(  9 -  9) =     33.19943  eV     1   --> B_2  G_4 D_2'  
     e( 10 - 10) =     34.08762  eV     1   --> A_1  G_1 D_1   

 **************************************************************************

 **************************************************************************

                    xk=(   0.00000,  -0.36667,   0.00000  )

     Band symmetry, C_4v (4mm)  point group:

     e(  1 -  1) =     -6.91901  eV     1   --> A_1  G_1 D_1   
     e(  2 -  3) =     10.39379  eV     2   --> E    G_5 D_5   
     e(  4 -  4) =     10.63290  eV     1   --> B_2  G_4 D_2'  
     e(  5 -  5) =     18.14322  eV     1   --> A_1  G_1 D_1   
     e(  6 -  7) =     22.82586  eV     2   --> E    G_5 D_5   
     e(  8 -  8) =     25.56732  eV     1   --> B_2  G_4 D_2'  
     e(  9 -  9) =     33.06296  eV     1   --> B_2  G_4 D_2'  
     e( 10 - 10) =     34.35492  eV     1   --> A_1  G_1 D_1   

 **************************************************************************

 **************************************************************************

                    xk=(   0.00000,  -0.40000,   0.00000  )

     Band symmetry, C_4v (4mm)  point group:

     e(  1 -  1) =     -6.68666  eV     1   --> A_1  G_1 D_1   
     e(  2 -  3) =     10.07154  eV     2   --> E    G_5 D_5   
     e(  4 -  4) =     10.19646  eV     1   --> B_2  G_4 D_2'  
     e(  5 -  5) =     18.04175  eV     1   --> A_1  G_1 D_1   
     e(  6 -  7) =     23.33579  eV     2   --> E    G_5 D_5   
     e(  8 -  8) =     25.11856  eV     1   --> B_2  G_4 D_2'  
     e(  9 -  9) =     33.03656  eV     1   --> B_2  G_4 D_2'  
     e( 10 - 10) =     34.62610  eV     1   --> A_1  G_1 D_1   

 **************************************************************************

 **************************************************************************

                    xk=(   0.00000,  -0.43333,   0.00000  )

     Band symmetry, C_4v (4mm)  point group:

     e(  1 -  1) =     -6.43475  eV     1   --> A_1  G_1 D_1   
     e(  2 -  2) =      9.74113  eV     1   --> B_2  G_4 D_2'  
     e(  3 -  4) =      9.76003  eV     2   --> E    G_5 D_5   
     e(  5 -  5) =     17.94355  eV     1   --> A_1  G_1 D_1   
     e(  6 -  7) =     23.84864  eV     2   --> E    G_5 D_5   
     e(  8 -  8) =     24.62342  eV     1   --> B_2  G_4 D_2'  
     e(  9 -  9) =     33.09807  eV     1   --> B_2  G_4 D_2'  
     e( 10 - 10) =     34.89666  eV     1   --> A_1  G_1 D_1   

 **************************************************************************

 **************************************************************************

                    xk=(   0.00000,  -0.46667,   0.00000  )

     Band symmetry, C_4v (4mm)  point group:

     e(  1 -  1) =     -6.16358  eV     1   --> A_1  G_1 D_1   
     e(  2 -  2) =      9.26405  eV     1   --> B_2  G_4 D_2'  
     e(  3 -  4) =      9.46081  eV     2   --> E    G_5 D_5   
     e(  5 -  5) =     17.84977  eV     1   --> A_1  G_1 D_1   
     e(  6 -  6) =     24.10031  eV     1   --> B_2  G_4 D_2'  
     e(  7 -  8) =     24.36184  eV     2   --> E    G_5 D_5   
     e(  9 -  9) =     33.22311  eV     1   --> B_2  G_4 D_2'  
     e( 10 - 10) =     35.16009  eV     1   --> A_1  G_1 D_1   

 **************************************************************************

 **************************************************************************

                    xk=(   0.00000,  -0.50000,   0.00000  )

     Band symmetry, C_4v (4mm)  point group:

     e(  1 -  1) =     -5.87311  eV     1   --> A_1  G_1 D_1   
     e(  2 -  2) =      8.77048  eV     1   --> B_2  G_4 D_2'  
     e(  3 -  4) =      9.17532  eV     2   --> E    G_5 D_5   
     e(  5 -  5) =     17.76323  eV     1   --> A_1  G_1 D_1   
     e(  6 -  6) =     23.56721  eV     1   --> B_2  G_4 D_2'  
     e(  7 -  8) =     24.87312  eV     2   --> E    G_5 D_5   
     e(  9 -  9) =     33.39545  eV     1   --> B_2  G_4 D_2'  
     e( 10 - 10) =     35.41578  eV     1   --> A_1  G_1 D_1   

 **************************************************************************

 **************************************************************************

                    xk=(   0.00000,  -0.53333,   0.00000  )

     Band symmetry, C_4v (4mm)  point group:

     e(  1 -  1) =     -5.56368  eV     1   --> A_1  G_1 D_1   
     e(  2 -  2) =      8.26167  eV     1   --> B_2  G_4 D_2'  
     e(  3 -  4) =      8.90466  eV     2   --> E    G_5 D_5   
     e(  5 -  5) =     17.68482  eV     1   --> A_1  G_1 D_1   
     e(  6 -  6) =     23.03621  eV     1   --> B_2  G_4 D_2'  
     e(  7 -  8) =     25.38019  eV     2   --> E    G_5 D_5   
     e(  9 -  9) =     33.59940  eV     1   --> B_2  G_4 D_2'  
     e( 10 - 10) =     35.65789  eV     1   --> A_1  G_1 D_1   

 **************************************************************************

 **************************************************************************

                    xk=(   0.00000,  -0.56667,   0.00000  )

     Band symmetry, C_4v (4mm)  point group:

     e(  1 -  1) =     -5.23555  eV     1   --> A_1  G_1 D_1   
     e(  2 -  2) =      7.74118  eV     1   --> B_2  G_4 D_2'  
     e(  3 -  4) =      8.65021  eV     2   --> E    G_5 D_5   
     e(  5 -  5) =     17.61661  eV     1   --> A_1  G_1 D_1   
     e(  6 -  6) =     22.51680  eV     1   --> B_2  G_4 D_2'  
     e(  7 -  8) =     25.88121  eV     2   --> E    G_5 D_5   
     e(  9 -  9) =     33.82515  eV     1   --> B_2  G_4 D_2'  
     e( 10 - 10) =     35.88417  eV     1   --> A_1  G_1 D_1   

 **************************************************************************

 **************************************************************************

                    xk=(   0.00000,  -0.60000,   0.00000  )

     Band symmetry, C_4v (4mm)  point group:

     e(  1 -  1) =     -4.88930  eV     1   --> A_1  G_1 D_1   
     e(  2 -  2) =      7.20562  eV     1   --> B_2  G_4 D_2'  
     e(  3 -  4) =      8.41059  eV     2   --> E    G_5 D_5   
     e(  5 -  5) =     17.55808  eV     1   --> A_1  G_1 D_1   
     e(  6 -  6) =     22.01333  eV     1   --> B_2  G_4 D_2'  
     e(  7 -  8) =     26.37170  eV     2   --> E    G_5 D_5   
     e(  9 -  9) =     34.05300  eV     1   --> B_2  G_4 D_2'  
     e( 10 - 10) =     36.08530  eV     1   --> A_1  G_1 D_1   

 **************************************************************************

 **************************************************************************

                    xk=(   0.00000,  -0.63333,   0.00000  )

     Band symmetry, C_4v (4mm)  point group:

     e(  1 -  1) =     -4.52473  eV     1   --> A_1  G_1 D_1   
     e(  2 -  2) =      6.66163  eV     1   --> B_2  G_4 D_2'  
     e(  3 -  4) =      8.18925  eV     2   --> E    G_5 D_5   
     e(  5 -  5) =     17.51203  eV     1   --> A_1  G_1 D_1   
     e(  6 -  6) =     21.53440  eV     1   --> B_2  G_4 D_2'  
     e(  7 -  8) =     26.85092  eV     2   --> E    G_5 D_5   
     e(  9 -  9) =     34.29327  eV     1   --> B_2  G_4 D_2'  
     e( 10 - 10) =     36.26542  eV     1   --> A_1  G_1 D_1   

 **************************************************************************

 **************************************************************************

                    xk=(   0.00000,  -0.66667,   0.00000  )

     Band symmetry, C_4v (4mm)  point group:

     e(  1 -  1) =     -4.14239  eV     1   --> A_1  G_1 D_1   
     e(  2 -  2) =      6.10956  eV     1   --> B_2  G_4 D_2'  
     e(  3 -  4) =      7.98632  eV     2   --> E    G_5 D_5   
     e(  5 -  5) =     17.48005  eV     1   --> A_1  G_1 D_1   
     e(  6 -  6) =     21.08114  eV     1   --> B_2  G_4 D_2'  
     e(  7 -  8) =     27.31717  eV     2   --> E    G_5 D_5   
     e(  9 -  9) =     34.53407  eV     1   --> B_2  G_4 D_2'  
     e( 10 - 10) =     36.42185  eV     1   --> A_1  G_1 D_1   

 **************************************************************************

 **************************************************************************

                    xk=(   0.00000,  -0.70000,   0.00000  )

     Band symmetry, C_4v (4mm)  point group:

     e(  1 -  1) =     -3.74298  eV     1   --> A_1  G_1 D_1   
     e(  2 -  2) =      5.55122  eV     1   --> B_2  G_4 D_2'  
     e(  3 -  4) =      7.80054  eV     2   --> E    G_5 D_5   
     e(  5 -  5) =     17.46134  eV     1   --> A_1  G_1 D_1   
     e(  6 -  6) =     20.65546  eV     1   --> B_2  G_4 D_2'  
     e(  7 -  8) =     27.76100  eV     2   --> E    G_5 D_5   
     e(  9 -  9) =     34.77181  eV     1   --> B_2  G_4 D_2'  
     e( 10 - 10) =     36.54760  eV     1   --> A_1  G_1 D_1   

 **************************************************************************

 **************************************************************************

                    xk=(   0.00000,  -0.73333,   0.00000  )

     Band symmetry, C_4v (4mm)  point group:

     e(  1 -  1) =     -3.32655  eV     1   --> A_1  G_1 D_1   
     e(  2 -  2) =      4.98846  eV     1   --> B_2  G_4 D_2'  
     e(  3 -  4) =      7.63366  eV     2   --> E    G_5 D_5   
     e(  5 -  5) =     17.45797  eV     1   --> A_1  G_1 D_1   
     e(  6 -  6) =     20.25842  eV     1   --> B_2  G_4 D_2'  
     e(  7 -  8) =     28.18266  eV     2   --> E    G_5 D_5   
     e(  9 -  9) =     35.00376  eV     1   --> B_2  G_4 D_2'  
     e( 10 - 10) =     36.64564  eV     1   --> A_1  G_1 D_1   

 **************************************************************************

 **************************************************************************

                    xk=(   0.00000,  -0.76667,   0.00000  )

     Band symmetry, C_4v (4mm)  point group:

     e(  1 -  1) =     -2.89378  eV     1   --> A_1  G_1 D_1   
     e(  2 -  2) =      4.42308  eV     1   --> B_2  G_4 D_2'  
     e(  3 -  4) =      7.48572  eV     2   --> E    G_5 D_5   
     e(  5 -  5) =     17.47090  eV     1   --> A_1  G_1 D_1   
     e(  6 -  6) =     19.89047  eV     1   --> B_2  G_4 D_2'  
     e(  7 -  8) =     28.57613  eV     2   --> E    G_5 D_5   
     e(  9 -  9) =     35.22779  eV     1   --> B_2  G_4 D_2'  
     e( 10 - 10) =     36.71468  eV     1   --> A_1  G_1 D_1   

 **************************************************************************

 **************************************************************************

                    xk=(   0.00000,  -0.80000,   0.00000  )

     Band symmetry, C_4v (4mm)  point group:

     e(  1 -  1) =     -2.44523  eV     1   --> A_1  G_1 D_1   
     e(  2 -  2) =      3.85791  eV     1   --> B_2  G_4 D_2'  
     e(  3 -  4) =      7.35767  eV     2   --> E    G_5 D_5   
     e(  5 -  5) =     17.50107  eV     1   --> A_1  G_1 D_1   
     e(  6 -  6) =     19.55166  eV     1   --> B_2  G_4 D_2'  
     e(  7 -  8) =     28.93819  eV     2   --> E    G_5 D_5   
     e(  9 -  9) =     35.44413  eV     1   --> B_2  G_4 D_2'  
     e( 10 - 10) =     36.75490  eV     1   --> A_1  G_1 D_1   

 **************************************************************************

 **************************************************************************

                    xk=(   0.00000,  -0.83333,   0.00000  )

     Band symmetry, C_4v (4mm)  point group:

     e(  1 -  1) =     -1.98153  eV     1   --> A_1  G_1 D_1   
     e(  2 -  2) =      3.29257  eV     1   --> B_2  G_4 D_2'  
     e(  3 -  4) =      7.24833  eV     2   --> E    G_5 D_5   
     e(  5 -  5) =     17.54946  eV     1   --> A_1  G_1 D_1   
     e(  6 -  6) =     19.24157  eV     1   --> B_2  G_4 D_2'  
     e(  7 -  8) =     29.25819  eV     2   --> E    G_5 D_5   
     e(  9 -  9) =     35.64758  eV     1   --> B_2  G_4 D_2'  
     e( 10 - 10) =     36.76698  eV     1   --> A_1  G_1 D_1   

 **************************************************************************

 **************************************************************************

                    xk=(   0.00000,  -0.86667,   0.00000  )

     Band symmetry, C_4v (4mm)  point group:

     e(  1 -  1) =     -1.50337  eV     1   --> A_1  G_1 D_1   
     e(  2 -  2) =      2.72987  eV     1   --> B_2  G_4 D_2'  
     e(  3 -  4) =      7.15862  eV     2   --> E    G_5 D_5   
     e(  5 -  5) =     17.61698  eV     1   --> A_1  G_1 D_1   
     e(  6 -  6) =     18.95967  eV     1   --> B_2  G_4 D_2'  
     e(  7 -  8) =     29.53207  eV     2   --> E    G_5 D_5   
     e(  9 -  9) =     35.83861  eV     1   --> B_2  G_4 D_2'  
     e( 10 - 10) =     36.75198  eV     1   --> A_1  G_1 D_1   

 **************************************************************************

 **************************************************************************

                    xk=(   0.00000,  -0.90000,   0.00000  )

     Band symmetry, C_4v (4mm)  point group:

     e(  1 -  1) =     -1.01182  eV     1   --> A_1  G_1 D_1   
     e(  2 -  2) =      2.17138  eV     1   --> B_2  G_4 D_2'  
     e(  3 -  4) =      7.08747  eV     2   --> E    G_5 D_5   
     e(  5 -  5) =     17.70454  eV     1   --> A_1  G_1 D_1   
     e(  6 -  6) =     18.70498  eV     1   --> B_2  G_4 D_2'  
     e(  7 -  8) =     29.75276  eV     2   --> E    G_5 D_5   
     e(  9 -  9) =     36.01424  eV     1   --> B_2  G_4 D_2'  
     e( 10 - 10) =     36.71005  eV     1   --> A_1  G_1 D_1   

 **************************************************************************

 **************************************************************************

                    xk=(   0.00000,  -0.93333,   0.00000  )

     Band symmetry, C_4v (4mm)  point group:

     e(  1 -  1) =     -0.50717  eV     1   --> A_1  G_1 D_1   
     e(  2 -  2) =      1.61866  eV     1   --> B_2  G_4 D_2'  
     e(  3 -  4) =      7.03742  eV     2   --> E    G_5 D_5   
     e(  5 -  5) =     17.81315  eV     1   --> A_1  G_1 D_1   
     e(  6 -  6) =     18.47718  eV     1   --> B_2  G_4 D_2'  
     e(  7 -  8) =     29.91583  eV     2   --> E    G_5 D_5   
     e(  9 -  9) =     36.17655  eV     1   --> B_2  G_4 D_2'  
     e( 10 - 10) =     36.64517  eV     1   --> A_1  G_1 D_1   

 **************************************************************************

 **************************************************************************

                    xk=(   0.00000,  -0.96667,   0.00000  )

     Band symmetry, C_4v (4mm)  point group:

     e(  1 -  1) =      0.00862  eV     1   --> A_1  G_1 D_1   
     e(  2 -  2) =      1.07294  eV     1   --> B_2  G_4 D_2'  
     e(  3 -  4) =      7.00730  eV     2   --> E    G_5 D_5   
     e(  5 -  5) =     17.94350  eV     1   --> A_1  G_1 D_1   
     e(  6 -  6) =     18.27432  eV     1   --> B_2  G_4 D_2'  
     e(  7 -  8) =     30.01502  eV     2   --> E    G_5 D_5   
     e(  9 -  9) =     36.31641  eV     1   --> B_2  G_4 D_2'  
     e( 10 - 10) =     36.55261  eV     1   --> A_1  G_1 D_1   

 **************************************************************************

 **************************************************************************

                    xk=(   0.00000,  -1.00000,   0.00000  )

     zone border point and non-symmorphic group 
     symmetry decomposition not available

 **************************************************************************

 **************************************************************************

                    xk=(   0.03333,  -1.00000,   0.00000  )

     zone border point and non-symmorphic group 
     symmetry decomposition not available

 **************************************************************************

 **************************************************************************

                    xk=(   0.06667,  -1.00000,   0.00000  )

     zone border point and non-symmorphic group 
     symmetry decomposition not available

 **************************************************************************

 **************************************************************************

                    xk=(   0.10000,  -1.00000,   0.00000  )

     zone border point and non-symmorphic group 
     symmetry decomposition not available

 **************************************************************************

 **************************************************************************

                    xk=(   0.13333,  -1.00000,   0.00000  )

     zone border point and non-symmorphic group 
     symmetry decomposition not available

 **************************************************************************

 **************************************************************************

                    xk=(   0.16667,  -1.00000,   0.00000  )

     zone border point and non-symmorphic group 
     symmetry decomposition not available

 **************************************************************************

 **************************************************************************

                    xk=(   0.20000,  -1.00000,   0.00000  )

     zone border point and non-symmorphic group 
     symmetry decomposition not available

 **************************************************************************

 **************************************************************************

                    xk=(   0.23333,  -1.00000,   0.00000  )

     zone border point and non-symmorphic group 
     symmetry decomposition not available

 **************************************************************************

 **************************************************************************

                    xk=(   0.26667,  -1.00000,   0.00000  )

     zone border point and non-symmorphic group 
     symmetry decomposition not available

 **************************************************************************

 **************************************************************************

                    xk=(   0.30000,  -1.00000,   0.00000  )

     zone border point and non-symmorphic group 
     symmetry decomposition not available

 **************************************************************************

 **************************************************************************

                    xk=(   0.33333,  -1.00000,   0.00000  )

     zone border point and non-symmorphic group 
     symmetry decomposition not available

 **************************************************************************

 **************************************************************************

                    xk=(   0.36667,  -1.00000,   0.00000  )

     zone border point and non-symmorphic group 
     symmetry decomposition not available

 **************************************************************************

 **************************************************************************

                    xk=(   0.40000,  -1.00000,   0.00000  )

     zone border point and non-symmorphic group 
     symmetry decomposition not available

 **************************************************************************

 **************************************************************************

                    xk=(   0.43333,  -1.00000,   0.00000  )

     zone border point and non-symmorphic group 
     symmetry decomposition not available

 **************************************************************************

 **************************************************************************

                    xk=(   0.46667,  -1.00000,   0.00000  )

     zone border point and non-symmorphic group 
     symmetry decomposition not available

 **************************************************************************

 **************************************************************************

                    xk=(   0.50000,  -1.00000,   0.00000  )

     zone border point and non-symmorphic group 
     symmetry decomposition not available

 **************************************************************************

 **************************************************************************

                    xk=(   0.53571,  -0.96429,   0.00000  )

     point group C_s (m)    
     there are  2 classes
     the character table:

       E     s    
A'     1.00  1.00
A''    1.00 -1.00

     the symmetry operations in each class and the name of the first element:

     E        1
                                                                 
     s        2
                                                                 

     Band symmetry, C_s (m)     point group:

     e(  1 -  1) =      1.05452  eV     1   --> A'             
     e(  2 -  2) =      1.53162  eV     1   --> A''            
     e(  3 -  3) =      4.73453  eV     1   --> A'             
     e(  4 -  4) =      5.34932  eV     1   --> A''            
     e(  5 -  5) =     23.27225  eV     1   --> A''            
     e(  6 -  6) =     24.11794  eV     1   --> A'             
     e(  7 -  7) =     25.77422  eV     1   --> A'             
     e(  8 -  8) =     25.91809  eV     1   --> A''            
     e(  9 -  9) =     34.14476  eV     1   --> A'             
     e( 10 - 10) =     35.04309  eV     1   --> A''            

 **************************************************************************

 **************************************************************************

                    xk=(   0.57143,  -0.92857,   0.00000  )

     Band symmetry, C_s (m)     point group:

     e(  1 -  1) =      0.82964  eV     1   --> A'             
     e(  2 -  2) =      1.62193  eV     1   --> A''            
     e(  3 -  3) =      4.51411  eV     1   --> A'             
     e(  4 -  4) =      5.85208  eV     1   --> A''            
     e(  5 -  5) =     22.26304  eV     1   --> A''            
     e(  6 -  6) =     24.16956  eV     1   --> A'             
     e(  7 -  7) =     26.10288  eV     1   --> A'             
     e(  8 -  8) =     26.59209  eV     1   --> A''            
     e(  9 -  9) =     33.66731  eV     1   --> A'             
     e( 10 - 10) =     35.50279  eV     1   --> A''            

 **************************************************************************

 **************************************************************************

                    xk=(   0.60714,  -0.89286,   0.00000  )

     Band symmetry, C_s (m)     point group:

     e(  1 -  1) =      0.64570  eV     1   --> A'             
     e(  2 -  2) =      1.63840  eV     1   --> A''            
     e(  3 -  3) =      4.33088  eV     1   --> A'             
     e(  4 -  4) =      6.42626  eV     1   --> A''            
     e(  5 -  5) =     21.26089  eV     1   --> A''            
     e(  6 -  6) =     24.15722  eV     1   --> A'             
     e(  7 -  7) =     26.50685  eV     1   --> A'             
     e(  8 -  8) =     27.28831  eV     1   --> A''            
     e(  9 -  9) =     33.18980  eV     1   --> A'             
     e( 10 - 10) =     35.97072  eV     1   --> A''            

 **************************************************************************

 **************************************************************************

                    xk=(   0.64286,  -0.85714,   0.00000  )

     Band symmetry, C_s (m)     point group:

     e(  1 -  1) =      0.50244  eV     1   --> A'             
     e(  2 -  2) =      1.62055  eV     1   --> A''            
     e(  3 -  3) =      4.18655  eV     1   --> A'             
     e(  4 -  4) =      6.99259  eV     1   --> A''            
     e(  5 -  5) =     20.36420  eV     1   --> A''            
     e(  6 -  6) =     24.12189  eV     1   --> A'             
     e(  7 -  7) =     26.91979  eV     1   --> A'             
     e(  8 -  8) =     27.91759  eV     1   --> A''            
     e(  9 -  9) =     32.73873  eV     1   --> A'             
     e( 10 - 10) =     36.44443  eV     1   --> A''            

 **************************************************************************

 **************************************************************************

                    xk=(   0.67857,  -0.82143,   0.00000  )

     Band symmetry, C_s (m)     point group:

     e(  1 -  1) =      0.39990  eV     1   --> A'             
     e(  2 -  2) =      1.59416  eV     1   --> A''            
     e(  3 -  3) =      4.08227  eV     1   --> A'             
     e(  4 -  4) =      7.47931  eV     1   --> A''            
     e(  5 -  5) =     19.64648  eV     1   --> A''            
     e(  6 -  6) =     24.08588  eV     1   --> A'             
     e(  7 -  7) =     27.28304  eV     1   --> A'             
     e(  8 -  8) =     28.42145  eV     1   --> A''            
     e(  9 -  9) =     32.35367  eV     1   --> A'             
     e( 10 - 10) =     36.92137  eV     1   --> A''            

 **************************************************************************

 **************************************************************************

                    xk=(   0.71429,  -0.78571,   0.00000  )

     Band symmetry, C_s (m)     point group:

     e(  1 -  1) =      0.33850  eV     1   --> A'             
     e(  2 -  2) =      1.57365  eV     1   --> A''            
     e(  3 -  3) =      4.01949  eV     1   --> A'             
     e(  4 -  4) =      7.81268  eV     1   --> A''            
     e(  5 -  5) =     19.17626  eV     1   --> A''            
     e(  6 -  6) =     24.06107  eV     1   --> A'             
     e(  7 -  7) =     27.54209  eV     1   --> A'             
     e(  8 -  8) =     28.75082  eV     1   --> A''            
     e(  9 -  9) =     32.08602  eV     1   --> A'             
     e( 10 - 10) =     37.36419  eV     1   --> A''            

 **************************************************************************

 **************************************************************************

                    xk=(   0.75000,  -0.75000,   0.00000  )

     point group C_2v (mm2) 
     there are  4 classes
     the character table:

       E     C2    s_v   s_v' 
A_1    1.00  1.00  1.00  1.00
A_2    1.00  1.00 -1.00 -1.00
B_1    1.00 -1.00  1.00 -1.00
B_2    1.00 -1.00 -1.00  1.00

     the symmetry operations in each class and the name of the first element:

     E        1
                                                                 
     C2       2
                                                                 
     s_v      4
                                                                 
     s_v'     3
                                                                 

     Band symmetry, C_2v (mm2)  point group:

     e(  1 -  1) =      0.31809  eV     1   --> A_1  D_1  S_1  
     e(  2 -  2) =      1.56630  eV     1   --> B_1  D_3  S_3  
     e(  3 -  3) =      3.99867  eV     1   --> A_1  D_1  S_1  
     e(  4 -  4) =      7.93176  eV     1   --> A_2  D_2  S_2  
     e(  5 -  5) =     19.01203  eV     1   --> B_1  D_3  S_3  
     e(  6 -  6) =     24.05287  eV     1   --> A_1  D_1  S_1  
     e(  7 -  7) =     27.63892  eV     1   --> B_2  D_4  S_4  
     e(  8 -  8) =     28.86631  eV     1   --> B_1  D_3  S_3  
     e(  9 -  9) =     31.98837  eV     1   --> A_1  D_1  S_1  
     e( 10 - 10) =     37.58927  eV     1   --> B_1  D_3  S_3  

 **************************************************************************

     BANDS        :      2.05s CPU      1.63s WALL


   This run was terminated on:  11:32:37   7Jan2024            

=------------------------------------------------------------------------------=
   JOB DONE.
=------------------------------------------------------------------------------=
