
     Program PWSCF v.6.6 starts on  7Jan2024 at 11:32:29 

     This program is part of the open-source Quantum ESPRESSO suite
     for quantum simulation of materials; please cite
         "P. Giannozzi et al., J. Phys.:Condens. Matter 21 395502 (2009);
         "P. Giannozzi et al., J. Phys.:Condens. Matter 29 465901 (2017);
          URL http://www.quantum-espresso.org", 
     in publications or presentations arising from this work. More details at
     http://www.quantum-espresso.org/quote

     Parallel version (MPI), running on     1 processors

     MPI processes distributed on     1 nodes
     Fft bands division:     nmany     =       1
     Waiting for input...
     Reading input from standard input

     Current dimensions of program PWSCF are:
     Max number of different atomic species (ntypx) = 10
     Max number of k-points (npk) =  40000
     Max angular momentum in pseudopotentials (lmaxx) =  3

     Atomic positions and unit cell read from directory:
     ./tmp/diamond.save/
     Atomic positions from file used, from input discarded


     Subspace diagonalization in iterative solution of the eigenvalue problem:
     a serial algorithm will be used


     G-vector sticks info
     --------------------
     sticks:   dense  smooth     PW     G-vecs:    dense   smooth      PW
     Sum         421     421    121                 5577     5577     941



     bravais-lattice index     =            2
     lattice parameter (alat)  =       6.7500  a.u.
     unit-cell volume          =      76.8867 (a.u.)^3
     number of atoms/cell      =            2
     number of atomic types    =            1
     number of electrons       =         8.00
     number of Kohn-Sham states=           10
     kinetic-energy cutoff     =      65.0000  Ry
     charge density cutoff     =     260.0000  Ry
     Exchange-correlation= PBE
                           (   1   4   3   4   0   0   0)

     celldm(1)=   6.650000  celldm(2)=   0.000000  celldm(3)=   0.000000
     celldm(4)=   0.000000  celldm(5)=   0.000000  celldm(6)=   0.000000

     crystal axes: (cart. coord. in units of alat)
               a(1) = (  -0.500000   0.000000   0.500000 )  
               a(2) = (   0.000000   0.500000   0.500000 )  
               a(3) = (  -0.500000   0.500000   0.000000 )  

     reciprocal axes: (cart. coord. in units 2 pi/alat)
               b(1) = ( -1.000000 -1.000000  1.000000 )  
               b(2) = (  1.000000  1.000000  1.000000 )  
               b(3) = ( -1.000000  1.000000 -1.000000 )  


     PseudoPot. # 1 for C  read from file:
     ./C.UPF
     MD5 check sum: ead9220225bd72a2f9a48cc2a638047d
     Pseudo is Norm-conserving + core correction, Zval =  4.0
     Generated using ONCVPSP code by D. R. Hamann
     Using radial grid of 1248 points,  4 beta functions with: 
                l(1) =   0
                l(2) =   0
                l(3) =   1
                l(4) =   1

     atomic species   valence    mass     pseudopotential
        C              4.00    12.01070     C ( 1.00)

     48 Sym. Ops., with inversion, found (24 have fractional translation)



   Cartesian axes

     site n.     atom                  positions (alat units)
         1           C   tau(   1) = (   0.0000000   0.0000000   0.0000000  )
         2           C   tau(   2) = (  -0.2500000   0.2500000   0.2500000  )

     number of k points=    89
                       cart. coord. in units 2pi/alat
        k(    1) = (   0.5000000   0.0000000   1.0000000), wk =   0.0224719
        k(    2) = (   0.5000000   0.0333333   0.9666667), wk =   0.0224719
        k(    3) = (   0.5000000   0.0666667   0.9333333), wk =   0.0224719
        k(    4) = (   0.5000000   0.1000000   0.9000000), wk =   0.0224719
        k(    5) = (   0.5000000   0.1333333   0.8666667), wk =   0.0224719
        k(    6) = (   0.5000000   0.1666667   0.8333333), wk =   0.0224719
        k(    7) = (   0.5000000   0.2000000   0.8000000), wk =   0.0224719
        k(    8) = (   0.5000000   0.2333333   0.7666667), wk =   0.0224719
        k(    9) = (   0.5000000   0.2666667   0.7333333), wk =   0.0224719
        k(   10) = (   0.5000000   0.3000000   0.7000000), wk =   0.0224719
        k(   11) = (   0.5000000   0.3333333   0.6666667), wk =   0.0224719
        k(   12) = (   0.5000000   0.3666667   0.6333333), wk =   0.0224719
        k(   13) = (   0.5000000   0.4000000   0.6000000), wk =   0.0224719
        k(   14) = (   0.5000000   0.4333333   0.5666667), wk =   0.0224719
        k(   15) = (   0.5000000   0.4666667   0.5333333), wk =   0.0224719
        k(   16) = (   0.5000000   0.5000000   0.5000000), wk =   0.0224719
        k(   17) = (   0.4761905   0.4761905   0.4761905), wk =   0.0224719
        k(   18) = (   0.4523810   0.4523810   0.4523810), wk =   0.0224719
        k(   19) = (   0.4285714   0.4285714   0.4285714), wk =   0.0224719
        k(   20) = (   0.4047619   0.4047619   0.4047619), wk =   0.0224719
        k(   21) = (   0.3809524   0.3809524   0.3809524), wk =   0.0224719
        k(   22) = (   0.3571429   0.3571429   0.3571429), wk =   0.0224719
        k(   23) = (   0.3333333   0.3333333   0.3333333), wk =   0.0224719
        k(   24) = (   0.3095238   0.3095238   0.3095238), wk =   0.0224719
        k(   25) = (   0.2857143   0.2857143   0.2857143), wk =   0.0224719
        k(   26) = (   0.2619048   0.2619048   0.2619048), wk =   0.0224719
        k(   27) = (   0.2380952   0.2380952   0.2380952), wk =   0.0224719
        k(   28) = (   0.2142857   0.2142857   0.2142857), wk =   0.0224719
        k(   29) = (   0.1904762   0.1904762   0.1904762), wk =   0.0224719
        k(   30) = (   0.1666667   0.1666667   0.1666667), wk =   0.0224719
        k(   31) = (   0.1428571   0.1428571   0.1428571), wk =   0.0224719
        k(   32) = (   0.1190476   0.1190476   0.1190476), wk =   0.0224719
        k(   33) = (   0.0952381   0.0952381   0.0952381), wk =   0.0224719
        k(   34) = (   0.0714286   0.0714286   0.0714286), wk =   0.0224719
        k(   35) = (   0.0476190   0.0476190   0.0476190), wk =   0.0224719
        k(   36) = (   0.0238095   0.0238095   0.0238095), wk =   0.0224719
        k(   37) = (   0.0000000   0.0000000   0.0000000), wk =   0.0224719
        k(   38) = (   0.0000000  -0.0333333   0.0000000), wk =   0.0224719
        k(   39) = (   0.0000000  -0.0666667   0.0000000), wk =   0.0224719
        k(   40) = (   0.0000000  -0.1000000   0.0000000), wk =   0.0224719
        k(   41) = (   0.0000000  -0.1333333   0.0000000), wk =   0.0224719
        k(   42) = (   0.0000000  -0.1666667   0.0000000), wk =   0.0224719
        k(   43) = (   0.0000000  -0.2000000   0.0000000), wk =   0.0224719
        k(   44) = (   0.0000000  -0.2333333   0.0000000), wk =   0.0224719
        k(   45) = (   0.0000000  -0.2666667   0.0000000), wk =   0.0224719
        k(   46) = (   0.0000000  -0.3000000   0.0000000), wk =   0.0224719
        k(   47) = (   0.0000000  -0.3333333   0.0000000), wk =   0.0224719
        k(   48) = (   0.0000000  -0.3666667   0.0000000), wk =   0.0224719
        k(   49) = (   0.0000000  -0.4000000   0.0000000), wk =   0.0224719
        k(   50) = (   0.0000000  -0.4333333   0.0000000), wk =   0.0224719
        k(   51) = (   0.0000000  -0.4666667   0.0000000), wk =   0.0224719
        k(   52) = (   0.0000000  -0.5000000   0.0000000), wk =   0.0224719
        k(   53) = (   0.0000000  -0.5333333   0.0000000), wk =   0.0224719
        k(   54) = (   0.0000000  -0.5666667   0.0000000), wk =   0.0224719
        k(   55) = (   0.0000000  -0.6000000   0.0000000), wk =   0.0224719
        k(   56) = (   0.0000000  -0.6333333   0.0000000), wk =   0.0224719
        k(   57) = (   0.0000000  -0.6666667   0.0000000), wk =   0.0224719
        k(   58) = (   0.0000000  -0.7000000   0.0000000), wk =   0.0224719
        k(   59) = (   0.0000000  -0.7333333   0.0000000), wk =   0.0224719
        k(   60) = (   0.0000000  -0.7666667   0.0000000), wk =   0.0224719
        k(   61) = (   0.0000000  -0.8000000   0.0000000), wk =   0.0224719
        k(   62) = (   0.0000000  -0.8333333   0.0000000), wk =   0.0224719
        k(   63) = (   0.0000000  -0.8666667   0.0000000), wk =   0.0224719
        k(   64) = (   0.0000000  -0.9000000   0.0000000), wk =   0.0224719
        k(   65) = (   0.0000000  -0.9333333   0.0000000), wk =   0.0224719
        k(   66) = (   0.0000000  -0.9666667   0.0000000), wk =   0.0224719
        k(   67) = (   0.0000000  -1.0000000   0.0000000), wk =   0.0224719
        k(   68) = (   0.0333333  -1.0000000   0.0000000), wk =   0.0224719
        k(   69) = (   0.0666667  -1.0000000   0.0000000), wk =   0.0224719
        k(   70) = (   0.1000000  -1.0000000   0.0000000), wk =   0.0224719
        k(   71) = (   0.1333333  -1.0000000   0.0000000), wk =   0.0224719
        k(   72) = (   0.1666667  -1.0000000   0.0000000), wk =   0.0224719
        k(   73) = (   0.2000000  -1.0000000   0.0000000), wk =   0.0224719
        k(   74) = (   0.2333333  -1.0000000   0.0000000), wk =   0.0224719
        k(   75) = (   0.2666667  -1.0000000   0.0000000), wk =   0.0224719
        k(   76) = (   0.3000000  -1.0000000   0.0000000), wk =   0.0224719
        k(   77) = (   0.3333333  -1.0000000   0.0000000), wk =   0.0224719
        k(   78) = (   0.3666667  -1.0000000   0.0000000), wk =   0.0224719
        k(   79) = (   0.4000000  -1.0000000   0.0000000), wk =   0.0224719
        k(   80) = (   0.4333333  -1.0000000   0.0000000), wk =   0.0224719
        k(   81) = (   0.4666667  -1.0000000   0.0000000), wk =   0.0224719
        k(   82) = (   0.5000000  -1.0000000   0.0000000), wk =   0.0224719
        k(   83) = (   0.5357143  -0.9642857   0.0000000), wk =   0.0224719
        k(   84) = (   0.5714286  -0.9285714   0.0000000), wk =   0.0224719
        k(   85) = (   0.6071429  -0.8928571   0.0000000), wk =   0.0224719
        k(   86) = (   0.6428571  -0.8571429   0.0000000), wk =   0.0224719
        k(   87) = (   0.6785714  -0.8214286   0.0000000), wk =   0.0224719
        k(   88) = (   0.7142857  -0.7857143   0.0000000), wk =   0.0224719
        k(   89) = (   0.7500000  -0.7500000   0.0000000), wk =   0.0224719

     Dense  grid:     5577 G-vectors     FFT dimensions: (  32,  32,  32)

     Estimated max dynamical RAM per process >       3.95 MB

     The potential is recalculated from file :
     ./tmp/diamond.save/charge-density

     Starting wfcs are    8 randomized atomic wfcs +    2 random wfcs

     Band Structure Calculation
     Davidson diagonalization with overlap

     ethr =  1.25E-10,  avg # of iterations = 19.2

     total cpu time spent up to now is        5.8 secs

     End of band structure calculation

          k = 0.5000 0.0000 1.0000 (   684 PWs)   bands (ev):

     1.3199   1.3199   4.9893   4.9893  23.9515  23.9515  25.5850  25.5850
    34.5991  34.5991

          k = 0.5000 0.0333 0.9667 (   690 PWs)   bands (ev):

     0.9250   1.6610   4.6926   5.3891  23.5859  24.1408  25.5754  25.8130
    33.9926  35.1347

          k = 0.5000 0.0667 0.9333 (   692 PWs)   bands (ev):

     0.5164   1.8838   4.5673   5.8498  23.1765  24.0710  25.8564  26.1384
    33.3318  35.6026

          k = 0.5000 0.1000 0.9000 (   686 PWs)   bands (ev):

     0.1154   1.9291   4.6745   6.3459  22.7825  23.8571  26.2892  26.5035
    32.6453  36.0072

          k = 0.5000 0.1333 0.8667 (   690 PWs)   bands (ev):

    -0.2677   1.8086   5.0009   6.8587  22.4272  23.5992  26.7179  26.8826
    31.9925  36.3476

          k = 0.5000 0.1667 0.8333 (   692 PWs)   bands (ev):

    -0.6259   1.5912   5.4780   7.3760  22.1238  23.3376  27.0052  27.2606
    31.4861  36.6344

          k = 0.5000 0.2000 0.8000 (   686 PWs)   bands (ev):

    -0.9552   1.3354   6.0448   7.8864  21.8797  23.0880  26.9945  27.6276
    31.2831  36.8745

          k = 0.5000 0.2333 0.7667 (   682 PWs)   bands (ev):

    -1.2534   1.0746   6.6626   8.3764  21.6984  22.8567  26.6143  27.9698
    31.4573  37.0721

          k = 0.5000 0.2667 0.7333 (   678 PWs)   bands (ev):

    -1.5189   0.8268   7.3066   8.8361  21.5812  22.6476  25.9664  28.2752
    31.9155  37.2283

          k = 0.5000 0.3000 0.7000 (   678 PWs)   bands (ev):

    -1.7506   0.6018   7.9554   9.2540  21.5257  22.4631  25.1918  28.5299
    32.5207  37.3448

          k = 0.5000 0.3333 0.6667 (   682 PWs)   bands (ev):

    -1.9477   0.4054   8.5891   9.6207  21.5254  22.3020  24.3903  28.7249
    33.1743  37.4214

          k = 0.5000 0.3667 0.6333 (   680 PWs)   bands (ev):

    -2.1096   0.2413   9.1842   9.9291  21.5687  22.1667  23.6322  28.8568
    33.8055  37.4575

          k = 0.5000 0.4000 0.6000 (   678 PWs)   bands (ev):

    -2.2357   0.1118   9.7080  10.1732  21.6386  22.0540  22.9721  28.9307
    34.3570  37.4551

          k = 0.5000 0.4333 0.5667 (   676 PWs)   bands (ev):

    -2.3260   0.0184  10.1250  10.3494  21.7126  21.9534  22.4702  28.9601
    34.7797  37.4282

          k = 0.5000 0.4667 0.5333 (   680 PWs)   bands (ev):

    -2.3804  -0.0381  10.3965  10.4542  21.7680  21.8472  22.1903  28.9647
    35.0411  37.3973

          k = 0.5000 0.5000 0.5000 (   700 PWs)   bands (ev):

    -2.3986  -0.0571  10.4863  10.4863  21.7877  21.7877  22.1158  28.9609
    35.1283  37.3817

          k = 0.4762 0.4762 0.4762 (   682 PWs)   bands (ev):

    -2.5458   0.1165  10.4995  10.4995  21.7869  21.7869  22.1110  28.9575
    35.0805  37.4402

          k = 0.4524 0.4524 0.4524 (   682 PWs)   bands (ev):

    -2.9005   0.5487  10.5293  10.5293  21.7816  21.7816  22.0956  28.9339
    34.9521  37.5862

          k = 0.4286 0.4286 0.4286 (   682 PWs)   bands (ev):

    -3.3411   1.1180  10.5790  10.5790  21.7708  21.7708  22.0697  28.8922
    34.7811  37.7844

          k = 0.4048 0.4048 0.4048 (   679 PWs)   bands (ev):

    -3.8055   1.7625  10.6483  10.6483  21.7513  21.7513  22.0330  28.8299
    34.6029  37.9996

          k = 0.3810 0.3810 0.3810 (   676 PWs)   bands (ev):

    -4.2680   2.4546  10.7371  10.7371  21.7194  21.7194  21.9845  28.7441
    34.4373  37.5271

          k = 0.3571 0.3571 0.3571 (   676 PWs)   bands (ev):

    -4.7164   3.1810  10.8449  10.8449  21.6693  21.6693  21.9229  28.6323
    34.2967  37.0624

          k = 0.3333 0.3333 0.3333 (   685 PWs)   bands (ev):

    -5.1443   3.9335  10.9704  10.9704  21.5952  21.5952  21.8461  28.4923
    34.1867  36.6474

          k = 0.3095 0.3095 0.3095 (   673 PWs)   bands (ev):

    -5.5482   4.7084  11.1163  11.1163  21.4950  21.4950  21.7536  28.3356
    34.1047  36.3036

          k = 0.2857 0.2857 0.2857 (   676 PWs)   bands (ev):

    -5.9260   5.4988  11.2770  11.2770  21.3625  21.3625  21.6420  28.1533
    34.0402  36.0452

          k = 0.2619 0.2619 0.2619 (   670 PWs)   bands (ev):

    -6.2761   6.3039  11.4534  11.4534  21.1968  21.1968  21.5086  27.9593
    33.9823  35.8827

          k = 0.2381 0.2381 0.2381 (   673 PWs)   bands (ev):

    -6.5978   7.1151  11.6435  11.6435  20.9976  20.9976  21.3493  27.7545
    33.9105  35.8223

          k = 0.2143 0.2143 0.2143 (   673 PWs)   bands (ev):

    -6.8904   7.9297  11.8452  11.8452  20.7679  20.7679  21.1623  27.5507
    33.8127  35.8669

          k = 0.1905 0.1905 0.1905 (   667 PWs)   bands (ev):

    -7.1529   8.7412  12.0555  12.0555  20.5143  20.5143  20.9451  27.3530
    33.6820  36.0160

          k = 0.1667 0.1667 0.1667 (   673 PWs)   bands (ev):

    -7.3856   9.5406  12.2702  12.2702  20.2417  20.2417  20.6934  27.1675
    33.5149  36.2667

          k = 0.1429 0.1429 0.1429 (   673 PWs)   bands (ev):

    -7.5877  10.3190  12.4845  12.4845  19.9641  19.9641  20.4108  26.9994
    33.3234  36.6146

          k = 0.1190 0.1190 0.1190 (   679 PWs)   bands (ev):

    -7.7592  11.0617  12.6917  12.6917  19.6914  19.6914  20.0991  26.8527
    33.1222  37.0539

          k = 0.0952 0.0952 0.0952 (   679 PWs)   bands (ev):

    -7.8996  11.7511  12.8836  12.8836  19.4385  19.4385  19.7742  26.7304
    32.9294  37.5784

          k = 0.0714 0.0714 0.0714 (   679 PWs)   bands (ev):

    -8.0090  12.3598  13.0503  13.0503  19.2194  19.2194  19.4548  26.6343
    32.7610  38.1812

          k = 0.0476 0.0476 0.0476 (   676 PWs)   bands (ev):

    -8.0872  12.8513  13.1813  13.1813  19.0487  19.0487  19.1738  26.5657
    32.6308  38.8528

          k = 0.0238 0.0238 0.0238 (   673 PWs)   bands (ev):

    -8.1342  13.1787  13.2650  13.2650  18.9398  18.9398  18.9751  26.5246
    32.5488  39.5694

          k = 0.0000 0.0000 0.0000 (   701 PWs)   bands (ev):

    -8.1501  13.2908  13.2908  13.2908  18.8990  18.8990  18.8990  26.5103
    32.5206  40.0893

          k = 0.0000-0.0333 0.0000 (   673 PWs)   bands (ev):

    -8.1396  13.2501  13.2501  13.2683  18.8941  18.9548  18.9548  26.5196
    32.5391  39.4310

          k = 0.0000-0.0667 0.0000 (   673 PWs)   bands (ev):

    -8.1089  13.1233  13.1233  13.1919  18.8694  19.1077  19.1077  26.5444
    32.5939  38.4968

          k = 0.0000-0.1000 0.0000 (   681 PWs)   bands (ev):

    -8.0578  12.9250  12.9250  13.0640  18.8292  19.3480  19.3480  26.5787
    32.6840  37.5615

          k = 0.0000-0.1333 0.0000 (   681 PWs)   bands (ev):

    -7.9863  12.6741  12.6741  12.8915  18.7745  19.6597  19.6597  26.6149
    32.8078  36.6626

          k = 0.0000-0.1667 0.0000 (   681 PWs)   bands (ev):

    -7.8944  12.3847  12.3847  12.6749  18.7070  20.0270  20.0270  26.6389
    32.9627  35.8231

          k = 0.0000-0.2000 0.0000 (   677 PWs)   bands (ev):

    -7.7822  12.0699  12.0699  12.4176  18.6308  20.4368  20.4368  26.6337
    33.1462  35.0637

          k = 0.0000-0.2333 0.0000 (   677 PWs)   bands (ev):

    -7.6497  11.7397  11.7397  12.1229  18.5429  20.8783  20.8783  26.5793
    33.3543  34.4056

          k = 0.0000-0.2667 0.0000 (   677 PWs)   bands (ev):

    -7.4970  11.4011  11.4011  11.7940  18.4495  21.3436  21.3436  26.4554
    33.5840  33.8679

          k = 0.0000-0.3000 0.0000 (   677 PWs)   bands (ev):

    -7.3242  11.0616  11.0616  11.4342  18.3498  21.8263  21.8263  26.2472
    33.4647  33.8305

          k = 0.0000-0.3333 0.0000 (   681 PWs)   bands (ev):

    -7.1316  10.7247  10.7247  11.0463  18.2461  22.3216  22.3216  25.9490
    33.1994  34.0876

          k = 0.0000-0.3667 0.0000 (   681 PWs)   bands (ev):

    -6.9190  10.3938  10.3938  10.6329  18.1432  22.8259  22.8259  25.5673
    33.0630  34.3549

          k = 0.0000-0.4000 0.0000 (   681 PWs)   bands (ev):

    -6.6867  10.0715  10.0715  10.1965  18.0418  23.3358  23.3358  25.1186
    33.0366  34.6261

          k = 0.0000-0.4333 0.0000 (   677 PWs)   bands (ev):

    -6.4347   9.7411   9.7600   9.7600  17.9436  23.8486  23.8486  24.6234
    33.0981  34.8967

          k = 0.0000-0.4667 0.0000 (   681 PWs)   bands (ev):

    -6.1636   9.2640   9.4608   9.4608  17.8498  24.1003  24.3618  24.3618
    33.2231  35.1601

          k = 0.0000-0.5000 0.0000 (   681 PWs)   bands (ev):

    -5.8731   8.7705   9.1753   9.1753  17.7632  23.5672  24.8731  24.8731
    33.3954  35.4158

          k = 0.0000-0.5333 0.0000 (   681 PWs)   bands (ev):

    -5.5637   8.2617   8.9047   8.9047  17.6848  23.0362  25.3802  25.3802
    33.5994  35.6579

          k = 0.0000-0.5667 0.0000 (   673 PWs)   bands (ev):

    -5.2356   7.7412   8.6502   8.6502  17.6166  22.5168  25.8812  25.8812
    33.8251  35.8842

          k = 0.0000-0.6000 0.0000 (   689 PWs)   bands (ev):

    -4.8893   7.2056   8.4106   8.4106  17.5581  22.0133  26.3717  26.3717
    34.0530  36.0853

          k = 0.0000-0.6333 0.0000 (   689 PWs)   bands (ev):

    -4.5247   6.6616   8.1892   8.1892  17.5120  21.5344  26.8509  26.8509
    34.2933  36.2654

          k = 0.0000-0.6667 0.0000 (   680 PWs)   bands (ev):

    -4.1424   6.1096   7.9863   7.9863  17.4800  21.0811  27.3172  27.3172
    34.5341  36.4218

          k = 0.0000-0.7000 0.0000 (   684 PWs)   bands (ev):

    -3.7430   5.5512   7.8005   7.8005  17.4613  20.6555  27.7610  27.7610
    34.7718  36.5476

          k = 0.0000-0.7333 0.0000 (   684 PWs)   bands (ev):

    -3.3266   4.9885   7.6337   7.6337  17.4580  20.2584  28.1827  28.1827
    35.0038  36.6456

          k = 0.0000-0.7667 0.0000 (   684 PWs)   bands (ev):

    -2.8938   4.4231   7.4857   7.4857  17.4709  19.8905  28.5761  28.5761
    35.2278  36.7147

          k = 0.0000-0.8000 0.0000 (   676 PWs)   bands (ev):

    -2.4452   3.8579   7.3577   7.3577  17.5011  19.5517  28.9382  28.9382
    35.4441  36.7549

          k = 0.0000-0.8333 0.0000 (   676 PWs)   bands (ev):

    -1.9815   3.2926   7.2483   7.2483  17.5495  19.2416  29.2582  29.2582
    35.6476  36.7670

          k = 0.0000-0.8667 0.0000 (   676 PWs)   bands (ev):

    -1.5034   2.7299   7.1586   7.1586  17.6170  18.9597  29.5321  29.5321
    35.8386  36.7520

          k = 0.0000-0.9000 0.0000 (   684 PWs)   bands (ev):

    -1.0118   2.1714   7.0875   7.0875  17.7045  18.7050  29.7528  29.7528
    36.0142  36.7100

          k = 0.0000-0.9333 0.0000 (   684 PWs)   bands (ev):

    -0.5072   1.6187   7.0374   7.0374  17.8132  18.4772  29.9158  29.9158
    36.1766  36.6452

          k = 0.0000-0.9667 0.0000 (   692 PWs)   bands (ev):

     0.0086   1.0729   7.0073   7.0073  17.9435  18.2743  30.0150  30.0150
    36.3164  36.5526

          k = 0.0000-1.0000 0.0000 (   692 PWs)   bands (ev):

     0.5359   0.5359   6.9973   6.9973  18.0970  18.0970  30.0487  30.0487
    36.4442  36.4442

          k = 0.0333-1.0000 0.0000 (   692 PWs)   bands (ev):

     0.5425   0.5425   6.9742   6.9742  18.1395  18.1395  30.0292  30.0292
    36.4188  36.4188

          k = 0.0667-1.0000 0.0000 (   692 PWs)   bands (ev):

     0.5620   0.5620   6.9065   6.9065  18.2658  18.2658  29.9699  29.9699
    36.3441  36.3441

          k = 0.1000-1.0000 0.0000 (   686 PWs)   bands (ev):

     0.5943   0.5943   6.7987   6.7987  18.4719  18.4719  29.8710  29.8710
    36.2255  36.2255

          k = 0.1333-1.0000 0.0000 (   686 PWs)   bands (ev):

     0.6386   0.6386   6.6553   6.6553  18.7513  18.7513  29.7266  29.7266
    36.0686  36.0686

          k = 0.1667-1.0000 0.0000 (   674 PWs)   bands (ev):

     0.6943   0.6943   6.4858   6.4858  19.0978  19.0978  29.5353  29.5353
    35.8881  35.8881

          k = 0.2000-1.0000 0.0000 (   678 PWs)   bands (ev):

     0.7591   0.7591   6.2952   6.2952  19.5025  19.5025  29.2889  29.2889
    35.6883  35.6883

          k = 0.2333-1.0000 0.0000 (   682 PWs)   bands (ev):

     0.8323   0.8323   6.0928   6.0928  19.9574  19.9574  28.9896  28.9896
    35.4853  35.4853

          k = 0.2667-1.0000 0.0000 (   686 PWs)   bands (ev):

     0.9113   0.9113   5.8874   5.8874  20.4550  20.4550  28.6348  28.6348
    35.2893  35.2893

          k = 0.3000-1.0000 0.0000 (   686 PWs)   bands (ev):

     0.9935   0.9935   5.6866   5.6866  20.9872  20.9872  28.2283  28.2283
    35.1106  35.1106

          k = 0.3333-1.0000 0.0000 (   690 PWs)   bands (ev):

     1.0753   1.0753   5.4974   5.4974  21.5450  21.5450  27.7741  27.7741
    34.9546  34.9546

          k = 0.3667-1.0000 0.0000 (   690 PWs)   bands (ev):

     1.1525   1.1525   5.3285   5.3285  22.1200  22.1200  27.2813  27.2813
    34.8257  34.8257

          k = 0.4000-1.0000 0.0000 (   692 PWs)   bands (ev):

     1.2202   1.2202   5.1866   5.1866  22.6977  22.6977  26.7639  26.7639
    34.7250  34.7250

          k = 0.4333-1.0000 0.0000 (   688 PWs)   bands (ev):

     1.2737   1.2737   5.0791   5.0791  23.2558  23.2558  26.2482  26.2482
    34.6551  34.6551

          k = 0.4667-1.0000 0.0000 (   688 PWs)   bands (ev):

     1.3079   1.3079   5.0119   5.0119  23.7321  23.7321  25.7958  25.7958
    34.6126  34.6126

          k = 0.5000-1.0000 0.0000 (   684 PWs)   bands (ev):

     1.3199   1.3199   4.9893   4.9893  23.9515  23.9515  25.5850  25.5850
    34.5991  34.5991

          k = 0.5357-0.9643 0.0000 (   690 PWs)   bands (ev):

     1.0545   1.5316   4.7345   5.3493  23.2723  24.1179  25.7742  25.9181
    34.1448  35.0431

          k = 0.5714-0.9286 0.0000 (   692 PWs)   bands (ev):

     0.8296   1.6219   4.5141   5.8521  22.2630  24.1696  26.1029  26.5921
    33.6673  35.5028

          k = 0.6071-0.8929 0.0000 (   685 PWs)   bands (ev):

     0.6457   1.6384   4.3309   6.4263  21.2609  24.1572  26.5069  27.2883
    33.1898  35.9707

          k = 0.6429-0.8571 0.0000 (   686 PWs)   bands (ev):

     0.5024   1.6206   4.1865   6.9926  20.3642  24.1219  26.9198  27.9176
    32.7387  36.4444

          k = 0.6786-0.8214 0.0000 (   689 PWs)   bands (ev):

     0.3999   1.5942   4.0823   7.4793  19.6465  24.0859  27.2830  28.4215
    32.3537  36.9214

          k = 0.7143-0.7857 0.0000 (   687 PWs)   bands (ev):

     0.3385   1.5737   4.0195   7.8127  19.1763  24.0611  27.5421  28.7508
    32.0860  37.3642

          k = 0.7500-0.7500 0.0000 (   682 PWs)   bands (ev):

     0.3181   1.5663   3.9987   7.9318  19.0120  24.0529  27.6389  28.8663
    31.9884  37.5893

     Writing output data file ./tmp/diamond.save/

     init_run     :      0.14s CPU      0.05s WALL (       1 calls)
     electrons    :     61.77s CPU      5.65s WALL (       1 calls)

     Called by init_run:
     wfcinit      :      0.00s CPU      0.00s WALL (       1 calls)
     potinit      :      0.02s CPU      0.01s WALL (       1 calls)
     hinit0       :      0.11s CPU      0.03s WALL (       1 calls)

     Called by electrons:
     c_bands      :     61.77s CPU      5.65s WALL (       1 calls)
     v_of_rho     :      0.01s CPU      0.01s WALL (       1 calls)

     Called by c_bands:
     init_us_2    :      0.10s CPU      0.01s WALL (      89 calls)
     cegterg      :     57.22s CPU      5.26s WALL (     120 calls)

     Called by *egterg:
     cdiaghg      :      1.61s CPU      0.17s WALL (    1797 calls)
     h_psi        :     51.46s CPU      4.71s WALL (    1917 calls)
     g_psi        :      0.18s CPU      0.02s WALL (    1708 calls)

     Called by h_psi:
     h_psi:calbec :      3.12s CPU      0.30s WALL (    1917 calls)
     vloc_psi     :     44.84s CPU      4.06s WALL (    1917 calls)
     add_vuspsi   :      3.37s CPU      0.33s WALL (    1917 calls)

     General routines
     calbec       :      3.10s CPU      0.30s WALL (    1917 calls)
     fft          :      0.01s CPU      0.00s WALL (      11 calls)
     fftw         :     38.12s CPU      3.42s WALL (   24996 calls)
     davcio       :      0.06s CPU      0.01s WALL (     178 calls)

     Parallel routines

     PWSCF        :   1m 2.32s CPU      5.86s WALL


   This run was terminated on:  11:32:35   7Jan2024            

=------------------------------------------------------------------------------=
   JOB DONE.
=------------------------------------------------------------------------------=
