
     Program BANDS v.6.6 starts on 20Dec2023 at 10:57:45 

     This program is part of the open-source Quantum ESPRESSO suite
     for quantum simulation of materials; please cite
         "P. Giannozzi et al., J. Phys.:Condens. Matter 21 395502 (2009);
         "P. Giannozzi et al., J. Phys.:Condens. Matter 29 465901 (2017);
          URL http://www.quantum-espresso.org", 
     in publications or presentations arising from this work. More details at
     http://www.quantum-espresso.org/quote

     Parallel version (MPI), running on     1 processors

     MPI processes distributed on     1 nodes
     Fft bands division:     nmany     =       1

     Reading xml data from directory:

     ./tmp/diamond.save/

     IMPORTANT: XC functional enforced from input :
     Exchange-correlation= PBE
                           (   1   4   3   4   0   0   0)
     Any further DFT definition will be discarded
     Please, verify this is what you really want


     G-vector sticks info
     --------------------
     sticks:   dense  smooth     PW     G-vecs:    dense   smooth      PW
     Sum         421     421    121                 5577     5577     941

     Reading collected, re-writing distributed wavefunctions
     high-symmetry point:  0.0000 0.5000 1.0000   x coordinate   0.0000
     high-symmetry point:  0.5000 0.5000 0.5000   x coordinate   0.7071
     high-symmetry point:  0.0000 0.0000 0.0000   x coordinate   1.5731
     high-symmetry point:  0.0000-1.0000 0.0000   x coordinate   2.5731
     high-symmetry point:  1.0000 0.5000 0.0000   x coordinate   4.3759
     high-symmetry point:  0.7500 0.7500 0.0000   x coordinate   4.7295

     Plottable bands (eV) written to file bandsdata.gnu
     Bands written to file bandsdata

 **************************************************************************

                    xk=(   0.00000,   0.50000,   1.00000  )

     zone border point and non-symmorphic group 
     symmetry decomposition not available

 **************************************************************************

 **************************************************************************

                    xk=(   0.02500,   0.50000,   0.97500  )

     zone border point and non-symmorphic group 
     symmetry decomposition not available

 **************************************************************************

 **************************************************************************

                    xk=(   0.05000,   0.50000,   0.95000  )

     zone border point and non-symmorphic group 
     symmetry decomposition not available

 **************************************************************************

 **************************************************************************

                    xk=(   0.07500,   0.50000,   0.92500  )

     zone border point and non-symmorphic group 
     symmetry decomposition not available

 **************************************************************************

 **************************************************************************

                    xk=(   0.10000,   0.50000,   0.90000  )

     zone border point and non-symmorphic group 
     symmetry decomposition not available

 **************************************************************************

 **************************************************************************

                    xk=(   0.12500,   0.50000,   0.87500  )

     zone border point and non-symmorphic group 
     symmetry decomposition not available

 **************************************************************************

 **************************************************************************

                    xk=(   0.15000,   0.50000,   0.85000  )

     zone border point and non-symmorphic group 
     symmetry decomposition not available

 **************************************************************************

 **************************************************************************

                    xk=(   0.17500,   0.50000,   0.82500  )

     zone border point and non-symmorphic group 
     symmetry decomposition not available

 **************************************************************************

 **************************************************************************

                    xk=(   0.20000,   0.50000,   0.80000  )

     zone border point and non-symmorphic group 
     symmetry decomposition not available

 **************************************************************************

 **************************************************************************

                    xk=(   0.22500,   0.50000,   0.77500  )

     zone border point and non-symmorphic group 
     symmetry decomposition not available

 **************************************************************************

 **************************************************************************

                    xk=(   0.25000,   0.50000,   0.75000  )

     zone border point and non-symmorphic group 
     symmetry decomposition not available

 **************************************************************************

 **************************************************************************

                    xk=(   0.27500,   0.50000,   0.72500  )

     zone border point and non-symmorphic group 
     symmetry decomposition not available

 **************************************************************************

 **************************************************************************

                    xk=(   0.30000,   0.50000,   0.70000  )

     zone border point and non-symmorphic group 
     symmetry decomposition not available

 **************************************************************************

 **************************************************************************

                    xk=(   0.32500,   0.50000,   0.67500  )

     zone border point and non-symmorphic group 
     symmetry decomposition not available

 **************************************************************************

 **************************************************************************

                    xk=(   0.35000,   0.50000,   0.65000  )

     zone border point and non-symmorphic group 
     symmetry decomposition not available

 **************************************************************************

 **************************************************************************

                    xk=(   0.37500,   0.50000,   0.62500  )

     zone border point and non-symmorphic group 
     symmetry decomposition not available

 **************************************************************************

 **************************************************************************

                    xk=(   0.40000,   0.50000,   0.60000  )

     zone border point and non-symmorphic group 
     symmetry decomposition not available

 **************************************************************************

 **************************************************************************

                    xk=(   0.42500,   0.50000,   0.57500  )

     zone border point and non-symmorphic group 
     symmetry decomposition not available

 **************************************************************************

 **************************************************************************

                    xk=(   0.45000,   0.50000,   0.55000  )

     zone border point and non-symmorphic group 
     symmetry decomposition not available

 **************************************************************************

 **************************************************************************

                    xk=(   0.47500,   0.50000,   0.52500  )

     zone border point and non-symmorphic group 
     symmetry decomposition not available

 **************************************************************************

 **************************************************************************

                    xk=(   0.50000,   0.50000,   0.50000  )

     zone border point and non-symmorphic group 
     symmetry decomposition not available

 **************************************************************************

 **************************************************************************

                    xk=(   0.47500,   0.47500,   0.47500  )

     point group C_3v (3m)  
     there are  3 classes
     the character table:

       E     2C3   3s_v 
A_1    1.00  1.00  1.00
A_2    1.00  1.00 -1.00
E      2.00 -1.00  0.00

     the symmetry operations in each class and the name of the first element:

     E        1
                                                                 
     2C3      2    3
                                                                 
     3s_v     4    5    6
                                                                 

     Band symmetry, C_3v (3m)   point group:

     e(  1 -  1) =     -2.55988  eV     1   --> A_1  L_1       
     e(  2 -  2) =      0.13314  eV     1   --> A_1  L_1       
     e(  3 -  4) =     10.50054  eV     2   --> E    L_3       
     e(  5 -  6) =     21.78670  eV     2   --> E    L_3       
     e(  7 -  7) =     22.11046  eV     1   --> A_1  L_1       
     e(  8 -  8) =     28.95672  eV     1   --> A_1  L_1       
     e(  9 -  9) =     35.07565  eV     1   --> A_1  L_1       
     e( 10 - 10) =     37.44565  eV     1   --> A_1  L_1       

 **************************************************************************

 **************************************************************************

                    xk=(   0.45000,   0.45000,   0.45000  )

     Band symmetry, C_3v (3m)   point group:

     e(  1 -  1) =     -2.94217  eV     1   --> A_1  L_1       
     e(  2 -  2) =      0.60087  eV     1   --> A_1  L_1       
     e(  3 -  4) =     10.53338  eV     2   --> E    L_3       
     e(  5 -  6) =     21.78084  eV     2   --> E    L_3       
     e(  7 -  7) =     22.09349  eV     1   --> A_1  L_1       
     e(  8 -  8) =     28.93057  eV     1   --> A_1  L_1       
     e(  9 -  9) =     34.93632  eV     1   --> A_1  L_1       
     e( 10 - 10) =     37.60436  eV     1   --> A_1  L_1       

 **************************************************************************

 **************************************************************************

                    xk=(   0.42500,   0.42500,   0.42500  )

     Band symmetry, C_3v (3m)   point group:

     e(  1 -  1) =     -3.41016  eV     1   --> A_1  L_1       
     e(  2 -  2) =      1.21081  eV     1   --> A_1  L_1       
     e(  3 -  4) =     10.58810  eV     2   --> E    L_3       
     e(  5 -  6) =     21.76850  eV     2   --> E    L_3       
     e(  7 -  7) =     22.06494  eV     1   --> A_1  L_1       
     e(  8 -  8) =     28.88426  eV     1   --> A_1  L_1       
     e(  9 -  9) =     34.75403  eV     1   --> A_1  L_1       
     e( 10 - 10) =     37.81625  eV     1   --> A_1  L_1       

 **************************************************************************

 **************************************************************************

                    xk=(   0.40000,   0.40000,   0.40000  )

     Band symmetry, C_3v (3m)   point group:

     e(  1 -  1) =     -3.89875  eV     1   --> A_1  L_1       
     e(  2 -  2) =      1.89766  eV     1   --> A_1  L_1       
     e(  3 -  4) =     10.66449  eV     2   --> E    L_3       
     e(  5 -  6) =     21.74596  eV     2   --> E    L_3       
     e(  7 -  7) =     22.02429  eV     1   --> A_1  L_1       
     e(  8 -  8) =     28.81465  eV     1   --> A_1  L_1       
     e(  9 -  9) =     34.56791  eV     1   --> A_1  L_1       
     e( 10 - 10) =     37.91656  eV     1   -->   ?

 **************************************************************************

 **************************************************************************

                    xk=(   0.37500,   0.37500,   0.37500  )

     Band symmetry, C_3v (3m)   point group:

     e(  1 -  1) =     -4.38178  eV     1   --> A_1  L_1       
     e(  2 -  2) =      2.63335  eV     1   --> A_1  L_1       
     e(  3 -  4) =     10.76229  eV     2   --> E    L_3       
     e(  5 -  6) =     21.70875  eV     2   --> E    L_3       
     e(  7 -  7) =     21.97033  eV     1   --> A_1  L_1       
     e(  8 -  8) =     28.71864  eV     1   --> A_1  L_1       
     e(  9 -  9) =     34.39937  eV     1   --> A_1  L_1       
     e( 10 - 10) =     37.40759  eV     1   -->   ?

 **************************************************************************

 **************************************************************************

                    xk=(   0.35000,   0.35000,   0.35000  )

     Band symmetry, C_3v (3m)   point group:

     e(  1 -  1) =     -4.84708  eV     1   --> A_1  L_1       
     e(  2 -  2) =      3.40445  eV     1   --> A_1  L_1       
     e(  3 -  4) =     10.88087  eV     2   --> E    L_3       
     e(  5 -  6) =     21.65000  eV     2   --> E    L_3       
     e(  7 -  7) =     21.90167  eV     1   --> A_1  L_1       
     e(  8 -  8) =     28.59367  eV     1   --> A_1  L_1       
     e(  9 -  9) =     34.26056  eV     1   --> A_1  L_1       
     e( 10 - 10) =     36.93167  eV     1   -->   ?

 **************************************************************************

 **************************************************************************

                    xk=(   0.32500,   0.32500,   0.32500  )

     Band symmetry, C_3v (3m)   point group:

     e(  1 -  1) =     -5.28849  eV     1   --> A_1  L_1       
     e(  2 -  2) =      4.20269  eV     1   --> A_1  L_1       
     e(  3 -  4) =     11.01916  eV     2   --> E    L_3       
     e(  5 -  6) =     21.56340  eV     2   --> E    L_3       
     e(  7 -  7) =     21.81568  eV     1   --> A_1  L_1       
     e(  8 -  8) =     28.44321  eV     1   --> A_1  L_1       
     e(  9 -  9) =     34.15549  eV     1   --> A_1  L_1       
     e( 10 - 10) =     36.51819  eV     1   -->   ?

 **************************************************************************

 **************************************************************************

                    xk=(   0.30000,   0.30000,   0.30000  )

     Band symmetry, C_3v (3m)   point group:

     e(  1 -  1) =     -5.70252  eV     1   --> A_1  L_1       
     e(  2 -  2) =      5.02316  eV     1   --> A_1  L_1       
     e(  3 -  4) =     11.17862  eV     2   --> E    L_3       
     e(  5 -  6) =     21.44601  eV     2   --> E    L_3       
     e(  7 -  7) =     21.71135  eV     1   --> A_1  L_1       
     e(  8 -  8) =     28.26496  eV     1   --> A_1  L_1       
     e(  9 -  9) =     34.07759  eV     1   --> A_1  L_1       
     e( 10 - 10) =     36.18933  eV     1   -->   ?

 **************************************************************************

 **************************************************************************

                    xk=(   0.27500,   0.27500,   0.27500  )

     Band symmetry, C_3v (3m)   point group:

     e(  1 -  1) =     -6.08707  eV     1   --> A_1  L_1       
     e(  2 -  2) =      5.85930  eV     1   --> A_1  L_1       
     e(  3 -  4) =     11.35456  eV     2   --> E    L_3       
     e(  5 -  6) =     21.29206  eV     2   --> E    L_3       
     e(  7 -  7) =     21.58483  eV     1   --> A_1  L_1       
     e(  8 -  8) =     28.06654  eV     1   --> A_1  L_1       
     e(  9 -  9) =     34.01377  eV     1   --> A_1  L_1       
     e( 10 - 10) =     35.95970  eV     1   -->   ?

 **************************************************************************

 **************************************************************************

                    xk=(   0.25000,   0.25000,   0.25000  )

     Band symmetry, C_3v (3m)   point group:

     e(  1 -  1) =     -6.44057  eV     1   --> A_1  L_1       
     e(  2 -  2) =      6.70924  eV     1   --> A_1  L_1       
     e(  3 -  4) =     11.54686  eV     2   --> E    L_3       
     e(  5 -  6) =     21.10125  eV     2   --> E    L_3       
     e(  7 -  7) =     21.43273  eV     1   --> A_1  L_1       
     e(  8 -  8) =     27.85807  eV     1   --> A_1  L_1       
     e(  9 -  9) =     33.94887  eV     1   --> A_1  L_1       
     e( 10 - 10) =     35.83947  eV     1   -->   ?

 **************************************************************************

 **************************************************************************

                    xk=(   0.22500,   0.22500,   0.22500  )

     Band symmetry, C_3v (3m)   point group:

     e(  1 -  1) =     -6.76239  eV     1   --> A_1  L_1       
     e(  2 -  2) =      7.56316  eV     1   --> A_1  L_1       
     e(  3 -  4) =     11.75316  eV     2   --> E    L_3       
     e(  5 -  6) =     20.87471  eV     2   --> E    L_3       
     e(  7 -  7) =     21.25019  eV     1   --> A_1  L_1       
     e(  8 -  8) =     27.64203  eV     1   --> A_1  L_1       
     e(  9 -  9) =     33.86066  eV     1   --> A_1  L_1       
     e( 10 - 10) =     35.83383  eV     1   -->   ?

 **************************************************************************

 **************************************************************************

                    xk=(   0.20000,   0.20000,   0.20000  )

     Band symmetry, C_3v (3m)   point group:

     e(  1 -  1) =     -7.05139  eV     1   --> A_1  L_1       
     e(  2 -  2) =      8.41759  eV     1   --> A_1  L_1       
     e(  3 -  4) =     11.97060  eV     2   --> E    L_3       
     e(  5 -  6) =     20.61857  eV     2   --> E    L_3       
     e(  7 -  7) =     21.03622  eV     1   --> A_1  L_1       
     e(  8 -  8) =     27.43093  eV     1   --> A_1  L_1       
     e(  9 -  9) =     33.73942  eV     1   --> A_1  L_1       
     e( 10 - 10) =     35.94401  eV     1   -->   ?

 **************************************************************************

 **************************************************************************

                    xk=(   0.17500,   0.17500,   0.17500  )

     Band symmetry, C_3v (3m)   point group:

     e(  1 -  1) =     -7.30763  eV     1   --> A_1  L_1       
     e(  2 -  2) =      9.26257  eV     1   --> A_1  L_1       
     e(  3 -  4) =     12.19475  eV     2   --> E    L_3       
     e(  5 -  6) =     20.33793  eV     2   --> E    L_3       
     e(  7 -  7) =     20.78489  eV     1   --> A_1  L_1       
     e(  8 -  8) =     27.23069  eV     1   --> A_1  L_1       
     e(  9 -  9) =     33.57673  eV     1   --> A_1  L_1       
     e( 10 - 10) =     36.16764  eV     1   -->   ?

 **************************************************************************

 **************************************************************************

                    xk=(   0.15000,   0.15000,   0.15000  )

     Band symmetry, C_3v (3m)   point group:

     e(  1 -  1) =     -7.53031  eV     1   --> A_1  L_1       
     e(  2 -  2) =     10.08844  eV     1   --> A_1  L_1       
     e(  3 -  4) =     12.42064  eV     2   --> E    L_3       
     e(  5 -  6) =     20.04735  eV     2   --> E    L_3       
     e(  7 -  7) =     20.49870  eV     1   --> A_1  L_1       
     e(  8 -  8) =     27.04775  eV     1   --> A_1  L_1       
     e(  9 -  9) =     33.38264  eV     1   --> A_1  L_1       
     e( 10 - 10) =     36.50033  eV     1   -->   ?

 **************************************************************************

 **************************************************************************

                    xk=(   0.12500,   0.12500,   0.12500  )

     Band symmetry, C_3v (3m)   point group:

     e(  1 -  1) =     -7.71918  eV     1   --> A_1  L_1       
     e(  2 -  2) =     10.88061  eV     1   --> A_1  L_1       
     e(  3 -  4) =     12.64105  eV     2   --> E    L_3       
     e(  5 -  6) =     19.75882  eV     2   --> E    L_3       
     e(  7 -  7) =     20.18085  eV     1   --> A_1  L_1       
     e(  8 -  8) =     26.88721  eV     1   --> A_1  L_1       
     e(  9 -  9) =     33.17266  eV     1   --> A_1  L_1       
     e( 10 - 10) =     36.93583  eV     1   -->   ?

 **************************************************************************

 **************************************************************************

                    xk=(   0.10000,   0.10000,   0.10000  )

     Band symmetry, C_3v (3m)   point group:

     e(  1 -  1) =     -7.87404  eV     1   --> A_1  L_1       
     e(  2 -  2) =     11.61869  eV     1   --> A_1  L_1       
     e(  3 -  4) =     12.84694  eV     2   --> E    L_3       
     e(  5 -  6) =     19.48687  eV     2   --> E    L_3       
     e(  7 -  7) =     19.83959  eV     1   --> A_1  L_1       
     e(  8 -  8) =     26.75279  eV     1   --> A_1  L_1       
     e(  9 -  9) =     32.96646  eV     1   --> A_1  L_1       
     e( 10 - 10) =     37.46704  eV     1   -->   ?

 **************************************************************************

 **************************************************************************

                    xk=(   0.07500,   0.07500,   0.07500  )

     Band symmetry, C_3v (3m)   point group:

     e(  1 -  1) =     -7.99462  eV     1   --> A_1  L_1       
     e(  2 -  2) =     12.27498  eV     1   --> A_1  L_1       
     e(  3 -  4) =     13.02732  eV     2   --> E    L_3       
     e(  5 -  6) =     19.24949  eV     2   --> E    L_3       
     e(  7 -  7) =     19.50123  eV     1   --> A_1  L_1       
     e(  8 -  8) =     26.64695  eV     1   --> A_1  L_1       
     e(  9 -  9) =     32.78415  eV     1   --> A_1  L_1       
     e( 10 - 10) =     38.08612  eV     1   -->   ?

 **************************************************************************

 **************************************************************************

                    xk=(   0.05000,   0.05000,   0.05000  )

     Band symmetry, C_3v (3m)   point group:

     e(  1 -  1) =     -8.08083  eV     1   --> A_1  L_1       
     e(  2 -  2) =     12.80810  eV     1   --> A_1  L_1       
     e(  3 -  4) =     13.16960  eV     2   --> E    L_3       
     e(  5 -  6) =     19.06317  eV     2   --> E    L_3       
     e(  7 -  7) =     19.19888  eV     1   --> A_1  L_1       
     e(  8 -  8) =     26.57100  eV     1   --> A_1  L_1       
     e(  9 -  9) =     32.64183  eV     1   --> A_1  L_1       
     e( 10 - 10) =     38.78294  eV     1   -->   ?

 **************************************************************************

 **************************************************************************

                    xk=(   0.02500,   0.02500,   0.02500  )

     Band symmetry, C_3v (3m)   point group:

     e(  1 -  1) =     -8.13258  eV     1   --> A_1  L_1       
     e(  2 -  2) =     13.16710  eV     1   --> A_1  L_1       
     e(  3 -  4) =     13.26211  eV     2   --> E    L_3       
     e(  5 -  6) =     18.94365  eV     2   --> E    L_3       
     e(  7 -  7) =     18.98230  eV     1   --> A_1  L_1       
     e(  8 -  8) =     26.52598  eV     1   --> A_1  L_1       
     e(  9 -  9) =     32.55161  eV     1   --> A_1  L_1       
     e( 10 - 10) =     39.53356  eV     1   -->   ?

 **************************************************************************

 **************************************************************************

                    xk=(   0.00000,   0.00000,   0.00000  )

     point group O_h (m-3m) 
     there are 10 classes
     the character table:

       E     8C3   3C2   6C4   6C2'  i     8S6   3s_h  6S4   6s_d 
A_1g   1.00  1.00  1.00  1.00  1.00  1.00  1.00  1.00  1.00  1.00
A_2g   1.00  1.00  1.00 -1.00 -1.00  1.00  1.00  1.00 -1.00 -1.00
E_g    2.00 -1.00  2.00  0.00  0.00  2.00 -1.00  2.00  0.00  0.00
T_1g   3.00  0.00 -1.00  1.00 -1.00  3.00  0.00 -1.00  1.00 -1.00
T_2g   3.00  0.00 -1.00 -1.00  1.00  3.00  0.00 -1.00 -1.00  1.00
A_1u   1.00  1.00  1.00  1.00  1.00 -1.00 -1.00 -1.00 -1.00 -1.00
A_2u   1.00  1.00  1.00 -1.00 -1.00 -1.00 -1.00 -1.00  1.00  1.00
E_u    2.00 -1.00  2.00  0.00  0.00 -2.00  1.00 -2.00  0.00  0.00
T_1u   3.00  0.00 -1.00  1.00 -1.00 -3.00  0.00  1.00 -1.00  1.00
T_2u   3.00  0.00 -1.00 -1.00  1.00 -3.00  0.00  1.00  1.00 -1.00

     the symmetry operations in each class and the name of the first element:

     E        1
                                                                 
     8C3     17   19   20   18   24   21   22   23
                                                                 
     3C2      2    4    3
                                                                 
     6C4      7    8   15   16   12   11
                                                                 
     6C2'     5    6   14   13   10    9
                                                                 
     i       25
                                                                 
     8S6     41   43   44   42   48   45   46   47
                                                                 
     3s_h    26   28   27
                                                                 
     6S4     31   32   39   40   36   35
                                                                 
     6s_d    29   30   38   37   34   33
                                                                 

     Band symmetry, O_h (m-3m)  point group:

     e(  1 -  1) =     -8.15006  eV     1   --> A_1g G_1   G_1+
     e(  2 -  4) =     13.29077  eV     3   --> T_2g G_25' G_5+
     e(  5 -  7) =     18.89900  eV     3   --> T_1u G_15  G_4-
     e(  8 -  8) =     26.51029  eV     1   --> A_2u G_2'  G_2-
     e(  9 -  9) =     32.52063  eV     1   --> A_1g G_1   G_1+
     e( 10 - 10) =     40.08933  eV     1   -->   ?

 **************************************************************************

 **************************************************************************

                    xk=(   0.00000,  -0.05000,   0.00000  )

     point group C_4v (4mm) 
     there are  5 classes
     the character table:

       E     2C4   C2    2s_v  2s_d 
A_1    1.00  1.00  1.00  1.00  1.00
A_2    1.00  1.00  1.00 -1.00 -1.00
B_1    1.00 -1.00  1.00  1.00 -1.00
B_2    1.00 -1.00  1.00 -1.00  1.00
E      2.00  0.00 -2.00  0.00  0.00

     the symmetry operations in each class and the name of the first element:

     E        1
                                                                 
     2C4      3    4
                                                                 
     C2       2
                                                                 
     2s_v     5    6
                                                                 
     2s_d     7    8
                                                                 

     Band symmetry, C_4v (4mm)  point group:

     e(  1 -  1) =     -8.12683  eV     1   --> A_1  G_1 D_1   
     e(  2 -  3) =     13.19642  eV     2   --> E    G_5 D_5   
     e(  4 -  4) =     13.23641  eV     1   --> B_2  G_4 D_2'  
     e(  5 -  5) =     18.88374  eV     1   --> A_1  G_1 D_1   
     e(  6 -  7) =     19.01933  eV     2   --> E    G_5 D_5   
     e(  8 -  8) =     26.53026  eV     1   --> B_2  G_4 D_2'  
     e(  9 -  9) =     32.56200  eV     1   --> A_1  G_1 D_1   
     e( 10 - 10) =     38.96810  eV     1   --> B_2  G_4 D_2'  

 **************************************************************************

 **************************************************************************

                    xk=(   0.00000,  -0.10000,   0.00000  )

     Band symmetry, C_4v (4mm)  point group:

     e(  1 -  1) =     -8.05783  eV     1   --> A_1  G_1 D_1   
     e(  2 -  3) =     12.92500  eV     2   --> E    G_5 D_5   
     e(  4 -  4) =     13.06400  eV     1   --> B_2  G_4 D_2'  
     e(  5 -  5) =     18.82916  eV     1   --> A_1  G_1 D_1   
     e(  6 -  7) =     19.34800  eV     2   --> E    G_5 D_5   
     e(  8 -  8) =     26.57874  eV     1   --> B_2  G_4 D_2'  
     e(  9 -  9) =     32.68403  eV     1   --> A_1  G_1 D_1   
     e( 10 - 10) =     37.56145  eV     1   --> B_2  G_4 D_2'  

 **************************************************************************

 **************************************************************************

                    xk=(   0.00000,  -0.15000,   0.00000  )

     Band symmetry, C_4v (4mm)  point group:

     e(  1 -  1) =     -7.94290  eV     1   --> A_1  G_1 D_1   
     e(  2 -  3) =     12.53333  eV     2   --> E    G_5 D_5   
     e(  4 -  4) =     12.78852  eV     1   --> B_2  G_4 D_2'  
     e(  5 -  5) =     18.74223  eV     1   --> A_1  G_1 D_1   
     e(  6 -  7) =     19.83729  eV     2   --> E    G_5 D_5   
     e(  8 -  8) =     26.62942  eV     1   --> B_2  G_4 D_2'  
     e(  9 -  9) =     32.88148  eV     1   --> A_1  G_1 D_1   
     e( 10 - 10) =     36.23413  eV     1   --> B_2  G_4 D_2'  

 **************************************************************************

 **************************************************************************

                    xk=(   0.00000,  -0.20000,   0.00000  )

     Band symmetry, C_4v (4mm)  point group:

     e(  1 -  1) =     -7.78216  eV     1   --> A_1  G_1 D_1   
     e(  2 -  3) =     12.06985  eV     2   --> E    G_5 D_5   
     e(  4 -  4) =     12.41761  eV     1   --> B_2  G_4 D_2'  
     e(  5 -  5) =     18.63080  eV     1   --> A_1  G_1 D_1   
     e(  6 -  7) =     20.43677  eV     2   --> E    G_5 D_5   
     e(  8 -  8) =     26.63366  eV     1   --> B_2  G_4 D_2'  
     e(  9 -  9) =     33.14617  eV     1   --> A_1  G_1 D_1   
     e( 10 - 10) =     35.06374  eV     1   --> B_2  G_4 D_2'  

 **************************************************************************

 **************************************************************************

                    xk=(   0.00000,  -0.25000,   0.00000  )

     Band symmetry, C_4v (4mm)  point group:

     e(  1 -  1) =     -7.57582  eV     1   --> A_1  G_1 D_1   
     e(  2 -  3) =     11.57144  eV     2   --> E    G_5 D_5   
     e(  4 -  4) =     11.96249  eV     1   --> B_2  G_4 D_2'  
     e(  5 -  5) =     18.49769  eV     1   --> A_1  G_1 D_1   
     e(  6 -  7) =     21.10897  eV     2   --> E    G_5 D_5   
     e(  8 -  8) =     26.52725  eV     1   --> B_2  G_4 D_2'  
     e(  9 -  9) =     33.46687  eV     1   --> A_1  G_1 D_1   
     e( 10 - 10) =     34.12064  eV     1   --> B_2  G_4 D_2'  

 **************************************************************************

 **************************************************************************

                    xk=(   0.00000,  -0.30000,   0.00000  )

     Band symmetry, C_4v (4mm)  point group:

     e(  1 -  1) =     -7.32420  eV     1   --> A_1  G_1 D_1   
     e(  2 -  3) =     11.06161  eV     2   --> E    G_5 D_5   
     e(  4 -  4) =     11.43416  eV     1   --> B_2  G_4 D_2'  
     e(  5 -  5) =     18.34979  eV     1   --> A_1  G_1 D_1   
     e(  6 -  7) =     21.82634  eV     2   --> E    G_5 D_5   
     e(  8 -  8) =     26.24724  eV     1   --> B_2  G_4 D_2'  
     e(  9 -  9) =     33.46473  eV     1   --> B_2  G_4 D_2'  
     e( 10 - 10) =     33.83046  eV     1   --> A_1  G_1 D_1   

 **************************************************************************

 **************************************************************************

                    xk=(   0.00000,  -0.35000,   0.00000  )

     Band symmetry, C_4v (4mm)  point group:

     e(  1 -  1) =     -7.02779  eV     1   --> A_1  G_1 D_1   
     e(  2 -  3) =     10.55830  eV     2   --> E    G_5 D_5   
     e(  4 -  4) =     10.84261  eV     1   --> B_2  G_4 D_2'  
     e(  5 -  5) =     18.19461  eV     1   --> A_1  G_1 D_1   
     e(  6 -  7) =     22.57282  eV     2   --> E    G_5 D_5   
     e(  8 -  8) =     25.76773  eV     1   --> B_2  G_4 D_2'  
     e(  9 -  9) =     33.11610  eV     1   --> B_2  G_4 D_2'  
     e( 10 - 10) =     34.22050  eV     1   --> A_1  G_1 D_1   

 **************************************************************************

 **************************************************************************

                    xk=(   0.00000,  -0.40000,   0.00000  )

     Band symmetry, C_4v (4mm)  point group:

     e(  1 -  1) =     -6.68666  eV     1   --> A_1  G_1 D_1   
     e(  2 -  3) =     10.07154  eV     2   --> E    G_5 D_5   
     e(  4 -  4) =     10.19646  eV     1   --> B_2  G_4 D_2'  
     e(  5 -  5) =     18.04175  eV     1   --> A_1  G_1 D_1   
     e(  6 -  7) =     23.33579  eV     2   --> E    G_5 D_5   
     e(  8 -  8) =     25.11856  eV     1   --> B_2  G_4 D_2'  
     e(  9 -  9) =     33.03656  eV     1   --> B_2  G_4 D_2'  
     e( 10 - 10) =     34.62610  eV     1   --> A_1  G_1 D_1   

 **************************************************************************

 **************************************************************************

                    xk=(   0.00000,  -0.45000,   0.00000  )

     Band symmetry, C_4v (4mm)  point group:

     e(  1 -  1) =     -6.30150  eV     1   --> A_1  G_1 D_1   
     e(  2 -  2) =      9.50510  eV     1   --> B_2  G_4 D_2'  
     e(  3 -  4) =      9.60880  eV     2   --> E    G_5 D_5   
     e(  5 -  5) =     17.89623  eV     1   --> A_1  G_1 D_1   
     e(  6 -  7) =     24.10534  eV     2   --> E    G_5 D_5   
     e(  8 -  8) =     24.36441  eV     1   --> B_2  G_4 D_2'  
     e(  9 -  9) =     33.15427  eV     1   --> B_2  G_4 D_2'  
     e( 10 - 10) =     35.03030  eV     1   --> A_1  G_1 D_1   

 **************************************************************************

 **************************************************************************

                    xk=(   0.00000,  -0.50000,   0.00000  )

     Band symmetry, C_4v (4mm)  point group:

     e(  1 -  1) =     -5.87311  eV     1   --> A_1  G_1 D_1   
     e(  2 -  2) =      8.77048  eV     1   --> B_2  G_4 D_2'  
     e(  3 -  4) =      9.17532  eV     2   --> E    G_5 D_5   
     e(  5 -  5) =     17.76323  eV     1   --> A_1  G_1 D_1   
     e(  6 -  6) =     23.56721  eV     1   --> B_2  G_4 D_2'  
     e(  7 -  8) =     24.87312  eV     2   --> E    G_5 D_5   
     e(  9 -  9) =     33.39545  eV     1   --> B_2  G_4 D_2'  
     e( 10 - 10) =     35.41578  eV     1   --> A_1  G_1 D_1   

 **************************************************************************

 **************************************************************************

                    xk=(   0.00000,  -0.55000,   0.00000  )

     Band symmetry, C_4v (4mm)  point group:

     e(  1 -  1) =     -5.40193  eV     1   --> A_1  G_1 D_1   
     e(  2 -  2) =      8.00210  eV     1   --> B_2  G_4 D_2'  
     e(  3 -  4) =      8.77517  eV     2   --> E    G_5 D_5   
     e(  5 -  5) =     17.64911  eV     1   --> A_1  G_1 D_1   
     e(  6 -  6) =     22.77452  eV     1   --> B_2  G_4 D_2'  
     e(  7 -  8) =     25.63141  eV     2   --> E    G_5 D_5   
     e(  9 -  9) =     33.70957  eV     1   --> B_2  G_4 D_2'  
     e( 10 - 10) =     35.77265  eV     1   --> A_1  G_1 D_1   

 **************************************************************************

 **************************************************************************

                    xk=(   0.00000,  -0.60000,   0.00000  )

     Band symmetry, C_4v (4mm)  point group:

     e(  1 -  1) =     -4.88930  eV     1   --> A_1  G_1 D_1   
     e(  2 -  2) =      7.20562  eV     1   --> B_2  G_4 D_2'  
     e(  3 -  4) =      8.41059  eV     2   --> E    G_5 D_5   
     e(  5 -  5) =     17.55808  eV     1   --> A_1  G_1 D_1   
     e(  6 -  6) =     22.01333  eV     1   --> B_2  G_4 D_2'  
     e(  7 -  8) =     26.37170  eV     2   --> E    G_5 D_5   
     e(  9 -  9) =     34.05300  eV     1   --> B_2  G_4 D_2'  
     e( 10 - 10) =     36.08530  eV     1   --> A_1  G_1 D_1   

 **************************************************************************

 **************************************************************************

                    xk=(   0.00000,  -0.65000,   0.00000  )

     Band symmetry, C_4v (4mm)  point group:

     e(  1 -  1) =     -4.33573  eV     1   --> A_1  G_1 D_1   
     e(  2 -  2) =      6.38649  eV     1   --> B_2  G_4 D_2'  
     e(  3 -  4) =      8.08589  eV     2   --> E    G_5 D_5   
     e(  5 -  5) =     17.49441  eV     1   --> A_1  G_1 D_1   
     e(  6 -  6) =     21.30442  eV     1   --> B_2  G_4 D_2'  
     e(  7 -  8) =     27.08731  eV     2   --> E    G_5 D_5   
     e(  9 -  9) =     34.41385  eV     1   --> B_2  G_4 D_2'  
     e( 10 - 10) =     36.34675  eV     1   --> A_1  G_1 D_1   

 **************************************************************************

 **************************************************************************

                    xk=(   0.00000,  -0.70000,   0.00000  )

     Band symmetry, C_4v (4mm)  point group:

     e(  1 -  1) =     -3.74298  eV     1   --> A_1  G_1 D_1   
     e(  2 -  2) =      5.55122  eV     1   --> B_2  G_4 D_2'  
     e(  3 -  4) =      7.80054  eV     2   --> E    G_5 D_5   
     e(  5 -  5) =     17.46134  eV     1   --> A_1  G_1 D_1   
     e(  6 -  6) =     20.65546  eV     1   --> B_2  G_4 D_2'  
     e(  7 -  8) =     27.76100  eV     2   --> E    G_5 D_5   
     e(  9 -  9) =     34.77181  eV     1   --> B_2  G_4 D_2'  
     e( 10 - 10) =     36.54760  eV     1   --> A_1  G_1 D_1   

 **************************************************************************

 **************************************************************************

                    xk=(   0.00000,  -0.75000,   0.00000  )

     Band symmetry, C_4v (4mm)  point group:

     e(  1 -  1) =     -3.11218  eV     1   --> A_1  G_1 D_1   
     e(  2 -  2) =      4.70598  eV     1   --> B_2  G_4 D_2'  
     e(  3 -  4) =      7.55731  eV     2   --> E    G_5 D_5   
     e(  5 -  5) =     17.46234  eV     1   --> A_1  G_1 D_1   
     e(  6 -  6) =     20.07080  eV     1   --> B_2  G_4 D_2'  
     e(  7 -  8) =     28.38325  eV     2   --> E    G_5 D_5   
     e(  9 -  9) =     35.11688  eV     1   --> B_2  G_4 D_2'  
     e( 10 - 10) =     36.68379  eV     1   --> A_1  G_1 D_1   

 **************************************************************************

 **************************************************************************

                    xk=(   0.00000,  -0.80000,   0.00000  )

     Band symmetry, C_4v (4mm)  point group:

     e(  1 -  1) =     -2.44523  eV     1   --> A_1  G_1 D_1   
     e(  2 -  2) =      3.85791  eV     1   --> B_2  G_4 D_2'  
     e(  3 -  4) =      7.35767  eV     2   --> E    G_5 D_5   
     e(  5 -  5) =     17.50107  eV     1   --> A_1  G_1 D_1   
     e(  6 -  6) =     19.55166  eV     1   --> B_2  G_4 D_2'  
     e(  7 -  8) =     28.93819  eV     2   --> E    G_5 D_5   
     e(  9 -  9) =     35.44413  eV     1   --> B_2  G_4 D_2'  
     e( 10 - 10) =     36.75490  eV     1   --> A_1  G_1 D_1   

 **************************************************************************

 **************************************************************************

                    xk=(   0.00000,  -0.85000,   0.00000  )

     Band symmetry, C_4v (4mm)  point group:

     e(  1 -  1) =     -1.74421  eV     1   --> A_1  G_1 D_1   
     e(  2 -  2) =      3.01079  eV     1   --> B_2  G_4 D_2'  
     e(  3 -  4) =      7.20101  eV     2   --> E    G_5 D_5   
     e(  5 -  5) =     17.58076  eV     1   --> A_1  G_1 D_1   
     e(  6 -  6) =     19.09714  eV     1   --> B_2  G_4 D_2'  
     e(  7 -  8) =     29.40130  eV     2   --> E    G_5 D_5   
     e(  9 -  9) =     35.74472  eV     1   --> B_2  G_4 D_2'  
     e( 10 - 10) =     36.76279  eV     1   --> A_1  G_1 D_1   

 **************************************************************************

 **************************************************************************

                    xk=(   0.00000,  -0.90000,   0.00000  )

     Band symmetry, C_4v (4mm)  point group:

     e(  1 -  1) =     -1.01182  eV     1   --> A_1  G_1 D_1   
     e(  2 -  2) =      2.17138  eV     1   --> B_2  G_4 D_2'  
     e(  3 -  4) =      7.08747  eV     2   --> E    G_5 D_5   
     e(  5 -  5) =     17.70454  eV     1   --> A_1  G_1 D_1   
     e(  6 -  6) =     18.70498  eV     1   --> B_2  G_4 D_2'  
     e(  7 -  8) =     29.75276  eV     2   --> E    G_5 D_5   
     e(  9 -  9) =     36.01424  eV     1   --> B_2  G_4 D_2'  
     e( 10 - 10) =     36.71005  eV     1   --> A_1  G_1 D_1   

 **************************************************************************

 **************************************************************************

                    xk=(   0.00000,  -0.95000,   0.00000  )

     Band symmetry, C_4v (4mm)  point group:

     e(  1 -  1) =     -0.25103  eV     1   --> A_1  G_1 D_1   
     e(  2 -  2) =      1.34473  eV     1   --> B_2  G_4 D_2'  
     e(  3 -  4) =      7.01983  eV     2   --> E    G_5 D_5   
     e(  5 -  5) =     17.87541  eV     1   --> A_1  G_1 D_1   
     e(  6 -  6) =     18.37223  eV     1   --> B_2  G_4 D_2'  
     e(  7 -  8) =     29.97319  eV     2   --> E    G_5 D_5   
     e(  9 -  9) =     36.24579  eV     1   --> B_2  G_4 D_2'  
     e( 10 - 10) =     36.59912  eV     1   --> A_1  G_1 D_1   

 **************************************************************************

 **************************************************************************

                    xk=(   0.00000,  -1.00000,   0.00000  )

     zone border point and non-symmorphic group 
     symmetry decomposition not available

 **************************************************************************

 **************************************************************************

                    xk=(   0.05000,  -0.92500,  -0.00000  )

     point group C_s (m)    
     there are  2 classes
     the character table:

       E     s    
A'     1.00  1.00
A''    1.00 -1.00

     the symmetry operations in each class and the name of the first element:

     E        1
                                                                 
     s        2
                                                                 

     Band symmetry, C_s (m)     point group:

     e(  1 -  1) =     -0.61721  eV     1   --> A'             
     e(  2 -  2) =      1.76677  eV     1   --> A''            
     e(  3 -  3) =      6.99253  eV     1   --> A'             
     e(  4 -  4) =      7.00269  eV     1   --> A''            
     e(  5 -  5) =     17.88154  eV     1   --> A'             
     e(  6 -  6) =     18.62423  eV     1   --> A''            
     e(  7 -  7) =     29.81363  eV     1   --> A''            
     e(  8 -  8) =     29.85761  eV     1   --> A'             
     e(  9 -  9) =     36.10643  eV     1   --> A''            
     e( 10 - 10) =     36.58740  eV     1   --> A'             

 **************************************************************************

 **************************************************************************

                    xk=(   0.10000,  -0.85000,   0.00000  )

     Band symmetry, C_s (m)     point group:

     e(  1 -  1) =     -1.66811  eV     1   --> A'             
     e(  2 -  2) =      3.02399  eV     1   --> A''            
     e(  3 -  3) =      6.97092  eV     1   --> A'             
     e(  4 -  4) =      7.05764  eV     1   --> A''            
     e(  5 -  5) =     17.96978  eV     1   --> A'             
     e(  6 -  6) =     19.44890  eV     1   --> A''            
     e(  7 -  7) =     29.05989  eV     1   --> A''            
     e(  8 -  8) =     29.36604  eV     1   --> A'             
     e(  9 -  9) =     35.73276  eV     1   --> A''            
     e( 10 - 10) =     36.44340  eV     1   --> A'             

 **************************************************************************

 **************************************************************************

                    xk=(   0.15000,  -0.77500,   0.00000  )

     Band symmetry, C_s (m)     point group:

     e(  1 -  1) =     -2.60164  eV     1   --> A'             
     e(  2 -  2) =      4.19869  eV     1   --> A''            
     e(  3 -  3) =      6.93975  eV     1   --> A'             
     e(  4 -  4) =      7.27250  eV     1   --> A''            
     e(  5 -  5) =     18.33384  eV     1   --> A'             
     e(  6 -  6) =     20.54177  eV     1   --> A''            
     e(  7 -  7) =     27.83808  eV     1   --> A''            
     e(  8 -  8) =     28.66216  eV     1   --> A'             
     e(  9 -  9) =     35.42383  eV     1   --> A''            
     e( 10 - 10) =     36.06213  eV     1   --> A'             

 **************************************************************************

 **************************************************************************

                    xk=(   0.20000,  -0.70000,   0.00000  )

     Band symmetry, C_s (m)     point group:

     e(  1 -  1) =     -3.40782  eV     1   --> A'             
     e(  2 -  2) =      5.08826  eV     1   --> A''            
     e(  3 -  3) =      6.91771  eV     1   --> A'             
     e(  4 -  4) =      7.83540  eV     1   --> A''            
     e(  5 -  5) =     18.92783  eV     1   --> A'             
     e(  6 -  6) =     21.85592  eV     1   --> A''            
     e(  7 -  7) =     26.34025  eV     1   --> A''            
     e(  8 -  8) =     27.79638  eV     1   --> A'             
     e(  9 -  9) =     35.15235  eV     1   --> A''            
     e( 10 - 10) =     35.55035  eV     1   --> A'             

 **************************************************************************

 **************************************************************************

                    xk=(   0.25000,  -0.62500,   0.00000  )

     Band symmetry, C_s (m)     point group:

     e(  1 -  1) =     -4.08021  eV     1   --> A'             
     e(  2 -  2) =      5.58998  eV     1   --> A''            
     e(  3 -  3) =      6.92837  eV     1   --> A'             
     e(  4 -  4) =      8.80927  eV     1   --> A''            
     e(  5 -  5) =     19.69420  eV     1   --> A'             
     e(  6 -  6) =     23.27491  eV     1   --> A''            
     e(  7 -  7) =     24.84395  eV     1   --> A''            
     e(  8 -  8) =     26.79445  eV     1   --> A'             
     e(  9 -  9) =     34.84121  eV     1   --> A''            
     e( 10 - 10) =     35.01669  eV     1   --> A'             

 **************************************************************************

 **************************************************************************

                    xk=(   0.30000,  -0.55000,   0.00000  )

     Band symmetry, C_s (m)     point group:

     e(  1 -  1) =     -4.61440  eV     1   --> A'             
     e(  2 -  2) =      5.87213  eV     1   --> A''            
     e(  3 -  3) =      6.98961  eV     1   --> A'             
     e(  4 -  4) =      9.92999  eV     1   --> A''            
     e(  5 -  5) =     20.56062  eV     1   --> A'             
     e(  6 -  6) =     23.20729  eV     1   --> A''            
     e(  7 -  7) =     25.03879  eV     1   --> A''            
     e(  8 -  8) =     25.68057  eV     1   --> A'             
     e(  9 -  9) =     34.40404  eV     1   --> A''            
     e( 10 - 10) =     34.56674  eV     1   --> A'             

 **************************************************************************

 **************************************************************************

                    xk=(   0.35000,  -0.47500,   0.00000  )

     Band symmetry, C_s (m)     point group:

     e(  1 -  1) =     -5.00704  eV     1   --> A'             
     e(  2 -  2) =      6.09332  eV     1   --> A''            
     e(  3 -  3) =      7.11359  eV     1   --> A'             
     e(  4 -  4) =     10.86411  eV     1   --> A''            
     e(  5 -  5) =     21.40371  eV     1   --> A'             
     e(  6 -  6) =     22.23806  eV     1   --> A''            
     e(  7 -  7) =     24.54177  eV     1   --> A'             
     e(  8 -  8) =     26.32605  eV     1   --> A''            
     e(  9 -  9) =     33.83331  eV     1   --> A''            
     e( 10 - 10) =     34.28731  eV     1   --> A'             

 **************************************************************************

 **************************************************************************

                    xk=(   0.40000,  -0.40000,   0.00000  )

     point group C_2v (mm2) 
     there are  4 classes
     the character table:

       E     C2    s_v   s_v' 
A_1    1.00  1.00  1.00  1.00
A_2    1.00  1.00 -1.00 -1.00
B_1    1.00 -1.00  1.00 -1.00
B_2    1.00 -1.00 -1.00  1.00

     the symmetry operations in each class and the name of the first element:

     E        1
                                                                 
     C2       2
                                                                 
     s_v      4
                                                                 
     s_v'     3
                                                                 

     Band symmetry, C_2v (mm2)  point group:

     e(  1 -  1) =     -5.25596  eV     1   --> A_1  D_1  S_1  
     e(  2 -  2) =      6.31686  eV     1   --> B_1  D_3  S_3  
     e(  3 -  3) =      7.30107  eV     1   --> A_1  D_1  S_1  
     e(  4 -  4) =     11.30609  eV     1   --> A_2  D_2  S_2  
     e(  5 -  5) =     21.79618  eV     1   --> B_2  D_4  S_4  
     e(  6 -  6) =     21.88770  eV     1   --> B_1  D_3  S_3  
     e(  7 -  7) =     23.78638  eV     1   --> A_1  D_1  S_1  
     e(  8 -  8) =     26.90428  eV     1   --> B_1  D_3  S_3  
     e(  9 -  9) =     33.49373  eV     1   --> A_2  D_2  S_2  
     e( 10 - 10) =     34.23483  eV     1   --> A_1  D_1  S_1  

 **************************************************************************

 **************************************************************************

                    xk=(   0.45000,  -0.32500,   0.00000  )

     point group C_s (m)    
     there are  2 classes
     the character table:

       E     s    
A'     1.00  1.00
A''    1.00 -1.00

     the symmetry operations in each class and the name of the first element:

     E        1
                                                                 
     s        2
                                                                 

     Band symmetry, C_s (m)     point group:

     e(  1 -  1) =     -5.36004  eV     1   --> A'             
     e(  2 -  2) =      6.55385  eV     1   --> A''            
     e(  3 -  3) =      7.53927  eV     1   --> A'             
     e(  4 -  4) =     11.10640  eV     1   --> A''            
     e(  5 -  5) =     21.05261  eV     1   --> A'             
     e(  6 -  6) =     22.31524  eV     1   --> A''            
     e(  7 -  7) =     24.11632  eV     1   --> A'             
     e(  8 -  8) =     26.32545  eV     1   --> A''            
     e(  9 -  9) =     33.71481  eV     1   --> A''            
     e( 10 - 10) =     34.42524  eV     1   --> A'             

 **************************************************************************

 **************************************************************************

                    xk=(   0.50000,  -0.25000,   0.00000  )

     Band symmetry, C_s (m)     point group:

     e(  1 -  1) =     -5.31892  eV     1   --> A'             
     e(  2 -  2) =      6.78347  eV     1   --> A''            
     e(  3 -  3) =      7.80018  eV     1   --> A'             
     e(  4 -  4) =     10.40545  eV     1   --> A''            
     e(  5 -  5) =     19.88656  eV     1   --> A'             
     e(  6 -  6) =     23.34532  eV     1   --> A''            
     e(  7 -  7) =     24.86598  eV     1   --> A'             
     e(  8 -  8) =     25.04495  eV     1   --> A''            
     e(  9 -  9) =     33.98397  eV     1   --> A''            
     e( 10 - 10) =     34.82812  eV     1   --> A'             

 **************************************************************************

 **************************************************************************

                    xk=(   0.55000,  -0.17500,   0.00000  )

     Band symmetry, C_s (m)     point group:

     e(  1 -  1) =     -5.13240  eV     1   --> A'             
     e(  2 -  2) =      6.94524  eV     1   --> A''            
     e(  3 -  3) =      8.03060  eV     1   --> A'             
     e(  4 -  4) =      9.47766  eV     1   --> A''            
     e(  5 -  5) =     18.79126  eV     1   --> A'             
     e(  6 -  6) =     23.57631  eV     1   --> A''            
     e(  7 -  7) =     24.71167  eV     1   --> A''            
     e(  8 -  8) =     25.63979  eV     1   --> A'             
     e(  9 -  9) =     34.09543  eV     1   --> A''            
     e( 10 - 10) =     35.36522  eV     1   --> A'             

 **************************************************************************

 **************************************************************************

                    xk=(   0.60000,  -0.10000,   0.00000  )

     Band symmetry, C_s (m)     point group:

     e(  1 -  1) =     -4.80199  eV     1   --> A'             
     e(  2 -  2) =      6.88830  eV     1   --> A''            
     e(  3 -  3) =      8.15116  eV     1   --> A'             
     e(  4 -  4) =      8.61253  eV     1   --> A''            
     e(  5 -  5) =     17.95642  eV     1   --> A'             
     e(  6 -  6) =     22.30609  eV     1   --> A''            
     e(  7 -  7) =     26.01730  eV     1   --> A''            
     e(  8 -  8) =     26.38142  eV     1   --> A'             
     e(  9 -  9) =     34.20203  eV     1   --> A''            
     e( 10 - 10) =     35.91426  eV     1   --> A'             

 **************************************************************************

 **************************************************************************

                    xk=(   0.65000,  -0.02500,   0.00000  )

     Band symmetry, C_s (m)     point group:

     e(  1 -  1) =     -4.33042  eV     1   --> A'             
     e(  2 -  2) =      6.37350  eV     1   --> A''            
     e(  3 -  3) =      8.06874  eV     1   --> A'             
     e(  4 -  4) =      8.09101  eV     1   --> A''            
     e(  5 -  5) =     17.51968  eV     1   --> A'             
     e(  6 -  6) =     21.32394  eV     1   --> A''            
     e(  7 -  7) =     27.06154  eV     1   --> A''            
     e(  8 -  8) =     27.08614  eV     1   --> A'             
     e(  9 -  9) =     34.42301  eV     1   --> A''            
     e( 10 - 10) =     36.33286  eV     1   --> A'             

 **************************************************************************

 **************************************************************************

                    xk=(   0.70000,   0.05000,   0.00000  )

     Band symmetry, C_s (m)     point group:

     e(  1 -  1) =     -3.72186  eV     1   --> A'             
     e(  2 -  2) =      5.52304  eV     1   --> A''            
     e(  3 -  3) =      7.73597  eV     1   --> A'             
     e(  4 -  4) =      7.79824  eV     1   --> A''            
     e(  5 -  5) =     17.56255  eV     1   --> A'             
     e(  6 -  6) =     20.73655  eV     1   --> A''            
     e(  7 -  7) =     27.66061  eV     1   --> A''            
     e(  8 -  8) =     27.76247  eV     1   --> A'             
     e(  9 -  9) =     34.80278  eV     1   --> A''            
     e( 10 - 10) =     36.48509  eV     1   --> A'             

 **************************************************************************

 **************************************************************************

                    xk=(   0.75000,   0.12500,   0.00000  )

     Band symmetry, C_s (m)     point group:

     e(  1 -  1) =     -2.98394  eV     1   --> A'             
     e(  2 -  2) =      4.61750  eV     1   --> A''            
     e(  3 -  3) =      7.18710  eV     1   --> A'             
     e(  4 -  4) =      7.46127  eV     1   --> A''            
     e(  5 -  5) =     18.06957  eV     1   --> A'             
     e(  6 -  6) =     20.58257  eV     1   --> A''            
     e(  7 -  7) =     27.78877  eV     1   --> A''            
     e(  8 -  8) =     28.38969  eV     1   --> A'             
     e(  9 -  9) =     35.24866  eV     1   --> A''            
     e( 10 - 10) =     36.24098  eV     1   --> A'             

 **************************************************************************

 **************************************************************************

                    xk=(   0.80000,   0.20000,   0.00000  )

     Band symmetry, C_s (m)     point group:

     e(  1 -  1) =     -2.13009  eV     1   --> A'             
     e(  2 -  2) =      3.76394  eV     1   --> A''            
     e(  3 -  3) =      6.51715  eV     1   --> A'             
     e(  4 -  4) =      7.01148  eV     1   --> A''            
     e(  5 -  5) =     18.96030  eV     1   --> A'             
     e(  6 -  6) =     20.83996  eV     1   --> A''            
     e(  7 -  7) =     27.54211  eV     1   --> A''            
     e(  8 -  8) =     28.87835  eV     1   --> A'             
     e(  9 -  9) =     35.55609  eV     1   --> A'             
     e( 10 - 10) =     35.59800  eV     1   --> A''            

 **************************************************************************

 **************************************************************************

                    xk=(   0.85000,   0.27500,   0.00000  )

     Band symmetry, C_s (m)     point group:

     e(  1 -  1) =     -1.18566  eV     1   --> A'             
     e(  2 -  2) =      2.99768  eV     1   --> A''            
     e(  3 -  3) =      5.83386  eV     1   --> A'             
     e(  4 -  4) =      6.48115  eV     1   --> A''            
     e(  5 -  5) =     20.14099  eV     1   --> A'             
     e(  6 -  6) =     21.43756  eV     1   --> A''            
     e(  7 -  7) =     27.05697  eV     1   --> A''            
     e(  8 -  8) =     29.00923  eV     1   --> A'             
     e(  9 -  9) =     34.64039  eV     1   --> A'             
     e( 10 - 10) =     35.71894  eV     1   --> A''            

 **************************************************************************

 **************************************************************************

                    xk=(   0.90000,   0.35000,   0.00000  )

     Band symmetry, C_s (m)     point group:

     e(  1 -  1) =     -0.20274  eV     1   --> A'             
     e(  2 -  2) =      2.33244  eV     1   --> A''            
     e(  3 -  3) =      5.24657  eV     1   --> A'             
     e(  4 -  4) =      5.93221  eV     1   --> A''            
     e(  5 -  5) =     21.52527  eV     1   --> A'             
     e(  6 -  6) =     22.28119  eV     1   --> A''            
     e(  7 -  7) =     26.45298  eV     1   --> A''            
     e(  8 -  8) =     28.38283  eV     1   --> A'             
     e(  9 -  9) =     34.05107  eV     1   --> A'             
     e( 10 - 10) =     35.56515  eV     1   --> A''            

 **************************************************************************

 **************************************************************************

                    xk=(   0.95000,   0.42500,   0.00000  )

     Band symmetry, C_s (m)     point group:

     e(  1 -  1) =      0.70336  eV     1   --> A'             
     e(  2 -  2) =      1.77269  eV     1   --> A''            
     e(  3 -  3) =      4.89479  eV     1   --> A'             
     e(  4 -  4) =      5.42003  eV     1   --> A''            
     e(  5 -  5) =     23.00124  eV     1   --> A'             
     e(  6 -  6) =     23.23531  eV     1   --> A''            
     e(  7 -  7) =     25.85403  eV     1   --> A''            
     e(  8 -  8) =     26.92327  eV     1   --> A'             
     e(  9 -  9) =     34.11262  eV     1   --> A'             
     e( 10 - 10) =     35.16108  eV     1   --> A''            

 **************************************************************************

 **************************************************************************

                    xk=(   1.00000,   0.50000,   0.00000  )

     zone border point and non-symmorphic group 
     symmetry decomposition not available

 **************************************************************************

 **************************************************************************

                    xk=(   0.98750,   0.51250,  -0.00000  )

     point group C_s (m)    
     there are  2 classes
     the character table:

       E     s    
A'     1.00  1.00
A''    1.00 -1.00

     the symmetry operations in each class and the name of the first element:

     E        1
                                                                 
     s        2
                                                                 

     Band symmetry, C_s (m)     point group:

     e(  1 -  1) =      1.22244  eV     1   --> A'             
     e(  2 -  2) =      1.41047  eV     1   --> A''            
     e(  3 -  3) =      4.89645  eV     1   --> A'             
     e(  4 -  4) =      5.09558  eV     1   --> A''            
     e(  5 -  5) =     23.80089  eV     1   --> A''            
     e(  6 -  6) =     24.02465  eV     1   --> A'             
     e(  7 -  7) =     25.61521  eV     1   --> A''            
     e(  8 -  8) =     25.63350  eV     1   --> A'             
     e(  9 -  9) =     34.44452  eV     1   --> A'             
     e( 10 - 10) =     34.75275  eV     1   --> A''            

 **************************************************************************

 **************************************************************************

                    xk=(   0.97500,   0.52500,   0.00000  )

     Band symmetry, C_s (m)     point group:

     e(  1 -  1) =      1.12987  eV     1   --> A'             
     e(  2 -  2) =      1.48288  eV     1   --> A''            
     e(  3 -  3) =      4.80743  eV     1   --> A'             
     e(  4 -  4) =      5.22350  eV     1   --> A''            
     e(  5 -  5) =     23.54229  eV     1   --> A''            
     e(  6 -  6) =     24.08164  eV     1   --> A'             
     e(  7 -  7) =     25.70071  eV     1   --> A'             
     e(  8 -  8) =     25.75212  eV     1   --> A''            
     e(  9 -  9) =     34.28453  eV     1   --> A'             
     e( 10 - 10) =     34.90823  eV     1   --> A''            

 **************************************************************************

 **************************************************************************

                    xk=(   0.96250,   0.53750,  -0.00000  )

     Band symmetry, C_s (m)     point group:

     e(  1 -  1) =      1.04232  eV     1   --> A'             
     e(  2 -  2) =      1.53865  eV     1   --> A''            
     e(  3 -  3) =      4.72268  eV     1   --> A'             
     e(  4 -  4) =      5.37163  eV     1   --> A''            
     e(  5 -  5) =     23.22462  eV     1   --> A''            
     e(  6 -  6) =     24.12292  eV     1   --> A'             
     e(  7 -  7) =     25.78780  eV     1   --> A'             
     e(  8 -  8) =     25.94856  eV     1   --> A''            
     e(  9 -  9) =     34.12128  eV     1   --> A'             
     e( 10 - 10) =     35.06588  eV     1   --> A''            

 **************************************************************************

 **************************************************************************

                    xk=(   0.95000,   0.55000,   0.00000  )

     Band symmetry, C_s (m)     point group:

     e(  1 -  1) =      0.95964  eV     1   --> A'             
     e(  2 -  2) =      1.57967  eV     1   --> A''            
     e(  3 -  3) =      4.64193  eV     1   --> A'             
     e(  4 -  4) =      5.53709  eV     1   --> A''            
     e(  5 -  5) =     22.87848  eV     1   --> A''            
     e(  6 -  6) =     24.14959  eV     1   --> A'             
     e(  7 -  7) =     25.89225  eV     1   --> A'             
     e(  8 -  8) =     26.17521  eV     1   --> A''            
     e(  9 -  9) =     33.95542  eV     1   --> A'             
     e( 10 - 10) =     35.22554  eV     1   --> A''            

 **************************************************************************

 **************************************************************************

                    xk=(   0.93750,   0.56250,   0.00000  )

     Band symmetry, C_s (m)     point group:

     e(  1 -  1) =      0.88203  eV     1   --> A'             
     e(  2 -  2) =      1.60813  eV     1   --> A''            
     e(  3 -  3) =      4.56578  eV     1   --> A'             
     e(  4 -  4) =      5.71682  eV     1   --> A''            
     e(  5 -  5) =     22.52058  eV     1   --> A''            
     e(  6 -  6) =     24.16471  eV     1   --> A'             
     e(  7 -  7) =     26.01101  eV     1   --> A'             
     e(  8 -  8) =     26.41624  eV     1   --> A''            
     e(  9 -  9) =     33.78770  eV     1   --> A'             
     e( 10 - 10) =     35.38697  eV     1   --> A''            

 **************************************************************************

 **************************************************************************

                    xk=(   0.92500,   0.57500,  -0.00000  )

     Band symmetry, C_s (m)     point group:

     e(  1 -  1) =      0.80940  eV     1   --> A'             
     e(  2 -  2) =      1.62613  eV     1   --> A''            
     e(  3 -  3) =      4.49408  eV     1   --> A'             
     e(  4 -  4) =      5.90748  eV     1   --> A''            
     e(  5 -  5) =     22.16022  eV     1   --> A''            
     e(  6 -  6) =     24.17035  eV     1   --> A'             
     e(  7 -  7) =     26.14097  eV     1   --> A'             
     e(  8 -  8) =     26.66271  eV     1   --> A''            
     e(  9 -  9) =     33.61912  eV     1   --> A'             
     e( 10 - 10) =     35.54923  eV     1   --> A''            

 **************************************************************************

 **************************************************************************

                    xk=(   0.91250,   0.58750,   0.00000  )

     Band symmetry, C_s (m)     point group:

     e(  1 -  1) =      0.74178  eV     1   --> A'             
     e(  2 -  2) =      1.63574  eV     1   --> A''            
     e(  3 -  3) =      4.42697  eV     1   --> A'             
     e(  4 -  4) =      6.10660  eV     1   --> A''            
     e(  5 -  5) =     21.80417  eV     1   --> A''            
     e(  6 -  6) =     24.16925  eV     1   --> A'             
     e(  7 -  7) =     26.27945  eV     1   --> A'             
     e(  8 -  8) =     26.90945  eV     1   --> A''            
     e(  9 -  9) =     33.45137  eV     1   --> A'             
     e( 10 - 10) =     35.71245  eV     1   --> A''            

 **************************************************************************

 **************************************************************************

                    xk=(   0.90000,   0.60000,  -0.00000  )

     Band symmetry, C_s (m)     point group:

     e(  1 -  1) =      0.67927  eV     1   --> A'             
     e(  2 -  2) =      1.63892  eV     1   --> A''            
     e(  3 -  3) =      4.36448  eV     1   --> A'             
     e(  4 -  4) =      6.30975  eV     1   --> A''            
     e(  5 -  5) =     21.45546  eV     1   --> A''            
     e(  6 -  6) =     24.16263  eV     1   --> A'             
     e(  7 -  7) =     26.42359  eV     1   --> A'             
     e(  8 -  8) =     27.15242  eV     1   --> A''            
     e(  9 -  9) =     33.28425  eV     1   --> A'             
     e( 10 - 10) =     35.87690  eV     1   --> A''            

 **************************************************************************

 **************************************************************************

                    xk=(   0.88750,   0.61250,   0.00000  )

     Band symmetry, C_s (m)     point group:

     e(  1 -  1) =      0.62154  eV     1   --> A'             
     e(  2 -  2) =      1.63703  eV     1   --> A''            
     e(  3 -  3) =      4.30660  eV     1   --> A'             
     e(  4 -  4) =      6.51268  eV     1   --> A''            
     e(  5 -  5) =     21.11750  eV     1   --> A''            
     e(  6 -  6) =     24.15222  eV     1   --> A'             
     e(  7 -  7) =     26.56895  eV     1   --> A'             
     e(  8 -  8) =     27.38815  eV     1   --> A''            
     e(  9 -  9) =     33.11904  eV     1   --> A'             
     e( 10 - 10) =     36.04074  eV     1   --> A''            

 **************************************************************************

 **************************************************************************

                    xk=(   0.87500,   0.62500,   0.00000  )

     Band symmetry, C_s (m)     point group:

     e(  1 -  1) =      0.56901  eV     1   --> A'             
     e(  2 -  2) =      1.63179  eV     1   --> A''            
     e(  3 -  3) =      4.25381  eV     1   --> A'             
     e(  4 -  4) =      6.71449  eV     1   --> A''            
     e(  5 -  5) =     20.79444  eV     1   --> A''            
     e(  6 -  6) =     24.14075  eV     1   --> A'             
     e(  7 -  7) =     26.71569  eV     1   --> A'             
     e(  8 -  8) =     27.61511  eV     1   --> A''            
     e(  9 -  9) =     32.95851  eV     1   --> A'             
     e( 10 - 10) =     36.20694  eV     1   --> A''            

 **************************************************************************

 **************************************************************************

                    xk=(   0.86250,   0.63750,  -0.00000  )

     Band symmetry, C_s (m)     point group:

     e(  1 -  1) =      0.52134  eV     1   --> A'             
     e(  2 -  2) =      1.62424  eV     1   --> A''            
     e(  3 -  3) =      4.20567  eV     1   --> A'             
     e(  4 -  4) =      6.91084  eV     1   --> A''            
     e(  5 -  5) =     20.48898  eV     1   --> A''            
     e(  6 -  6) =     24.12762  eV     1   --> A'             
     e(  7 -  7) =     26.85946  eV     1   --> A'             
     e(  8 -  8) =     27.82981  eV     1   --> A''            
     e(  9 -  9) =     32.80321  eV     1   --> A'             
     e( 10 - 10) =     36.37299  eV     1   --> A''            

 **************************************************************************

 **************************************************************************

                    xk=(   0.85000,   0.65000,   0.00000  )

     Band symmetry, C_s (m)     point group:

     e(  1 -  1) =      0.47867  eV     1   --> A'             
     e(  2 -  2) =      1.61537  eV     1   --> A''            
     e(  3 -  3) =      4.16246  eV     1   --> A'             
     e(  4 -  4) =      7.09873  eV     1   --> A''            
     e(  5 -  5) =     20.20410  eV     1   --> A''            
     e(  6 -  6) =     24.11429  eV     1   --> A'             
     e(  7 -  7) =     26.99857  eV     1   --> A'             
     e(  8 -  8) =     28.03023  eV     1   --> A''            
     e(  9 -  9) =     32.65504  eV     1   --> A'             
     e( 10 - 10) =     36.53991  eV     1   --> A''            

 **************************************************************************

 **************************************************************************

                    xk=(   0.83750,   0.66250,  -0.00000  )

     Band symmetry, C_s (m)     point group:

     e(  1 -  1) =      0.44103  eV     1   --> A'             
     e(  2 -  2) =      1.60600  eV     1   --> A''            
     e(  3 -  3) =      4.12422  eV     1   --> A'             
     e(  4 -  4) =      7.27567  eV     1   --> A''            
     e(  5 -  5) =     19.94310  eV     1   --> A''            
     e(  6 -  6) =     24.10140  eV     1   --> A'             
     e(  7 -  7) =     27.13062  eV     1   --> A'             
     e(  8 -  8) =     28.21404  eV     1   --> A''            
     e(  9 -  9) =     32.51600  eV     1   --> A'             
     e( 10 - 10) =     36.70737  eV     1   --> A''            

 **************************************************************************

 **************************************************************************

                    xk=(   0.82500,   0.67500,   0.00000  )

     Band symmetry, C_s (m)     point group:

     e(  1 -  1) =      0.40838  eV     1   --> A'             
     e(  2 -  2) =      1.59672  eV     1   --> A''            
     e(  3 -  3) =      4.09098  eV     1   --> A'             
     e(  4 -  4) =      7.43652  eV     1   --> A''            
     e(  5 -  5) =     19.70832  eV     1   --> A''            
     e(  6 -  6) =     24.08942  eV     1   --> A'             
     e(  7 -  7) =     27.25052  eV     1   --> A'             
     e(  8 -  8) =     28.37894  eV     1   --> A''            
     e(  9 -  9) =     32.38784  eV     1   --> A'             
     e( 10 - 10) =     36.87437  eV     1   --> A''            

 **************************************************************************

 **************************************************************************

                    xk=(   0.81250,   0.68750,   0.00000  )

     Band symmetry, C_s (m)     point group:

     e(  1 -  1) =      0.38069  eV     1   --> A'             
     e(  2 -  2) =      1.58808  eV     1   --> A''            
     e(  3 -  3) =      4.06265  eV     1   --> A'             
     e(  4 -  4) =      7.57966  eV     1   --> A''            
     e(  5 -  5) =     19.50310  eV     1   --> A''            
     e(  6 -  6) =     24.07841  eV     1   --> A'             
     e(  7 -  7) =     27.36024  eV     1   --> A'             
     e(  8 -  8) =     28.52197  eV     1   --> A''            
     e(  9 -  9) =     32.27350  eV     1   --> A'             
     e( 10 - 10) =     37.03878  eV     1   --> A''            

 **************************************************************************

 **************************************************************************

                    xk=(   0.80000,   0.70000,  -0.00000  )

     Band symmetry, C_s (m)     point group:

     e(  1 -  1) =      0.35818  eV     1   --> A'             
     e(  2 -  2) =      1.58062  eV     1   --> A''            
     e(  3 -  3) =      4.03965  eV     1   --> A'             
     e(  4 -  4) =      7.70274  eV     1   --> A''            
     e(  5 -  5) =     19.33047  eV     1   --> A''            
     e(  6 -  6) =     24.06942  eV     1   --> A'             
     e(  7 -  7) =     27.45625  eV     1   --> A'             
     e(  8 -  8) =     28.64328  eV     1   --> A''            
     e(  9 -  9) =     32.17559  eV     1   --> A'             
     e( 10 - 10) =     37.19850  eV     1   --> A''            

 **************************************************************************

 **************************************************************************

                    xk=(   0.78750,   0.71250,   0.00000  )

     Band symmetry, C_s (m)     point group:

     e(  1 -  1) =      0.34060  eV     1   --> A'             
     e(  2 -  2) =      1.57441  eV     1   --> A''            
     e(  3 -  3) =      4.02164  eV     1   --> A'             
     e(  4 -  4) =      7.80072  eV     1   --> A''            
     e(  5 -  5) =     19.19290  eV     1   --> A''            
     e(  6 -  6) =     24.06195  eV     1   --> A'             
     e(  7 -  7) =     27.53262  eV     1   --> A'             
     e(  8 -  8) =     28.73922  eV     1   --> A''            
     e(  9 -  9) =     32.09578  eV     1   --> A'             
     e( 10 - 10) =     37.34474  eV     1   --> A''            

 **************************************************************************

 **************************************************************************

                    xk=(   0.77500,   0.72500,  -0.00000  )

     Band symmetry, C_s (m)     point group:

     e(  1 -  1) =      0.32804  eV     1   --> A'             
     e(  2 -  2) =      1.56982  eV     1   --> A''            
     e(  3 -  3) =      4.00877  eV     1   --> A'             
     e(  4 -  4) =      7.87284  eV     1   --> A''            
     e(  5 -  5) =     19.09283  eV     1   --> A''            
     e(  6 -  6) =     24.05664  eV     1   --> A'             
     e(  7 -  7) =     27.58998  eV     1   --> A'             
     e(  8 -  8) =     28.80892  eV     1   --> A''            
     e(  9 -  9) =     32.03679  eV     1   --> A'             
     e( 10 - 10) =     37.46899  eV     1   --> A''            

 **************************************************************************

 **************************************************************************

                    xk=(   0.76250,   0.73750,   0.00000  )

     Band symmetry, C_s (m)     point group:

     e(  1 -  1) =      0.32057  eV     1   --> A'             
     e(  2 -  2) =      1.56725  eV     1   --> A''            
     e(  3 -  3) =      4.00124  eV     1   --> A'             
     e(  4 -  4) =      7.91694  eV     1   --> A''            
     e(  5 -  5) =     19.03243  eV     1   --> A''            
     e(  6 -  6) =     24.05396  eV     1   --> A'             
     e(  7 -  7) =     27.62569  eV     1   --> A'             
     e(  8 -  8) =     28.85214  eV     1   --> A''            
     e(  9 -  9) =     32.00058  eV     1   --> A'             
     e( 10 - 10) =     37.55793  eV     1   --> A''            

 **************************************************************************

 **************************************************************************

                    xk=(   0.75000,   0.75000,   0.00000  )

     point group C_2v (mm2) 
     there are  4 classes
     the character table:

       E     C2    s_v   s_v' 
A_1    1.00  1.00  1.00  1.00
A_2    1.00  1.00 -1.00 -1.00
B_1    1.00 -1.00  1.00 -1.00
B_2    1.00 -1.00 -1.00  1.00

     the symmetry operations in each class and the name of the first element:

     E        1
                                                                 
     C2       2
                                                                 
     s_v      3
                                                                 
     s_v'     4
                                                                 

     Band symmetry, C_2v (mm2)  point group:

     e(  1 -  1) =      0.31809  eV     1   --> A_1  D_1  S_1  
     e(  2 -  2) =      1.56630  eV     1   --> B_2  D_4  S_4  
     e(  3 -  3) =      3.99867  eV     1   --> A_1  D_1  S_1  
     e(  4 -  4) =      7.93176  eV     1   --> A_2  D_2  S_2  
     e(  5 -  5) =     19.01203  eV     1   --> B_2  D_4  S_4  
     e(  6 -  6) =     24.05287  eV     1   --> A_1  D_1  S_1  
     e(  7 -  7) =     27.63892  eV     1   --> B_1  D_3  S_3  
     e(  8 -  8) =     28.86631  eV     1   --> B_2  D_4  S_4  
     e(  9 -  9) =     31.98837  eV     1   --> A_1  D_1  S_1  
     e( 10 - 10) =     37.58927  eV     1   --> B_2  D_4  S_4  

 **************************************************************************

     BANDS        :      2.53s CPU      2.05s WALL


   This run was terminated on:  10:57:48  20Dec2023            

=------------------------------------------------------------------------------=
   JOB DONE.
=------------------------------------------------------------------------------=
