
     Program PWSCF v.6.6 starts on  5Jan2024 at 15:14:31 

     This program is part of the open-source Quantum ESPRESSO suite
     for quantum simulation of materials; please cite
         "P. Giannozzi et al., J. Phys.:Condens. Matter 21 395502 (2009);
         "P. Giannozzi et al., J. Phys.:Condens. Matter 29 465901 (2017);
          URL http://www.quantum-espresso.org", 
     in publications or presentations arising from this work. More details at
     http://www.quantum-espresso.org/quote

     Parallel version (MPI), running on     1 processors

     MPI processes distributed on     1 nodes
     Fft bands division:     nmany     =       1
     Reading input from lattice-in_6.9.in

     Current dimensions of program PWSCF are:
     Max number of different atomic species (ntypx) = 10
     Max number of k-points (npk) =  40000
     Max angular momentum in pseudopotentials (lmaxx) =  3

     Subspace diagonalization in iterative solution of the eigenvalue problem:
     a serial algorithm will be used


     G-vector sticks info
     --------------------
     sticks:   dense  smooth     PW     G-vecs:    dense   smooth      PW
     Sum         499     499    163                 7239     7239    1291



     bravais-lattice index     =            2
     lattice parameter (alat)  =       6.9000  a.u.
     unit-cell volume          =      82.1273 (a.u.)^3
     number of atoms/cell      =            2
     number of atomic types    =            1
     number of electrons       =         8.00
     number of Kohn-Sham states=            4
     kinetic-energy cutoff     =      75.0000  Ry
     charge density cutoff     =     300.0000  Ry
     convergence threshold     =      1.0E-08
     mixing beta               =       0.7000
     number of iterations used =            8  plain     mixing
     Exchange-correlation= PBE
                           (   1   4   3   4   0   0   0)

     celldm(1)=   6.900000  celldm(2)=   0.000000  celldm(3)=   0.000000
     celldm(4)=   0.000000  celldm(5)=   0.000000  celldm(6)=   0.000000

     crystal axes: (cart. coord. in units of alat)
               a(1) = (  -0.500000   0.000000   0.500000 )  
               a(2) = (   0.000000   0.500000   0.500000 )  
               a(3) = (  -0.500000   0.500000   0.000000 )  

     reciprocal axes: (cart. coord. in units 2 pi/alat)
               b(1) = ( -1.000000 -1.000000  1.000000 )  
               b(2) = (  1.000000  1.000000  1.000000 )  
               b(3) = ( -1.000000  1.000000 -1.000000 )  


     PseudoPot. # 1 for C  read from file:
     ./C.UPF
     MD5 check sum: ead9220225bd72a2f9a48cc2a638047d
     Pseudo is Norm-conserving + core correction, Zval =  4.0
     Generated using ONCVPSP code by D. R. Hamann
     Using radial grid of 1248 points,  4 beta functions with: 
                l(1) =   0
                l(2) =   0
                l(3) =   1
                l(4) =   1

     atomic species   valence    mass     pseudopotential
        C              4.00    12.01070     C ( 1.00)

     48 Sym. Ops., with inversion, found (24 have fractional translation)



   Cartesian axes

     site n.     atom                  positions (alat units)
         1           C   tau(   1) = (   0.0000000   0.0000000   0.0000000  )
         2           C   tau(   2) = (  -0.2500000   0.2500000   0.2500000  )

     number of k points=    10
                       cart. coord. in units 2pi/alat
        k(    1) = (  -0.1250000   0.1250000   0.1250000), wk =   0.0625000
        k(    2) = (  -0.3750000   0.3750000  -0.1250000), wk =   0.1875000
        k(    3) = (   0.3750000  -0.3750000   0.6250000), wk =   0.1875000
        k(    4) = (   0.1250000  -0.1250000   0.3750000), wk =   0.1875000
        k(    5) = (  -0.1250000   0.6250000   0.1250000), wk =   0.1875000
        k(    6) = (   0.6250000  -0.1250000   0.8750000), wk =   0.3750000
        k(    7) = (   0.3750000   0.1250000   0.6250000), wk =   0.3750000
        k(    8) = (  -0.1250000  -0.8750000   0.1250000), wk =   0.1875000
        k(    9) = (  -0.3750000   0.3750000   0.3750000), wk =   0.0625000
        k(   10) = (   0.3750000  -0.3750000   1.1250000), wk =   0.1875000

     Dense  grid:     7239 G-vectors     FFT dimensions: (  32,  32,  32)

     Estimated max dynamical RAM per process >       6.71 MB

     Initial potential from superposition of free atoms

     starting charge    7.99991, renormalised to    8.00000
     Starting wfcs are    8 randomized atomic wfcs

     total cpu time spent up to now is        0.2 secs

     Self-consistent Calculation

     iteration #  1     ecut=    75.00 Ry     beta= 0.70
     Davidson diagonalization with overlap
     ethr =  1.00E-02,  avg # of iterations =  2.0

     total cpu time spent up to now is        0.3 secs

     total energy              =     -24.06385798 Ry
     estimated scf accuracy    <       0.09146163 Ry

     iteration #  2     ecut=    75.00 Ry     beta= 0.70
     Davidson diagonalization with overlap
     ethr =  1.14E-03,  avg # of iterations =  1.4

     total cpu time spent up to now is        0.4 secs

     total energy              =     -24.06938110 Ry
     estimated scf accuracy    <       0.00337218 Ry

     iteration #  3     ecut=    75.00 Ry     beta= 0.70
     Davidson diagonalization with overlap
     ethr =  4.22E-05,  avg # of iterations =  2.8

     total cpu time spent up to now is        0.9 secs

     total energy              =     -24.07067758 Ry
     estimated scf accuracy    <       0.00007947 Ry

     iteration #  4     ecut=    75.00 Ry     beta= 0.70
     Davidson diagonalization with overlap
     ethr =  9.93E-07,  avg # of iterations =  5.2

     total cpu time spent up to now is        1.2 secs

     total energy              =     -24.07078859 Ry
     estimated scf accuracy    <       0.00001130 Ry

     iteration #  5     ecut=    75.00 Ry     beta= 0.70
     Davidson diagonalization with overlap
     ethr =  1.41E-07,  avg # of iterations =  2.6

     total cpu time spent up to now is        1.3 secs

     total energy              =     -24.07079173 Ry
     estimated scf accuracy    <       0.00000030 Ry

     iteration #  6     ecut=    75.00 Ry     beta= 0.70
     Davidson diagonalization with overlap
     ethr =  3.78E-09,  avg # of iterations =  4.2

     total cpu time spent up to now is        1.4 secs

     End of self-consistent calculation

          k =-0.1250 0.1250 0.1250 (   914 PWs)   bands (ev):

    -8.0313   9.8308  11.5169  11.5169

          k =-0.3750 0.3750-0.1250 (   897 PWs)   bands (ev):

    -5.8806   4.7200   8.0057  10.3935

          k = 0.3750-0.3750 0.6250 (   901 PWs)   bands (ev):

    -3.0717   0.2239   8.1813   8.8200

          k = 0.1250-0.1250 0.3750 (   905 PWs)   bands (ev):

    -6.9443   7.2713   9.4456  10.1679

          k =-0.1250 0.6250 0.1250 (   898 PWs)   bands (ev):

    -4.8177   4.8787   7.1839   7.5870

          k = 0.6250-0.1250 0.8750 (   906 PWs)   bands (ev):

    -1.1294   1.3774   4.2290   6.1992

          k = 0.3750 0.1250 0.6250 (   896 PWs)   bands (ev):

    -3.8316   2.7191   6.1758   8.2986

          k =-0.1250-0.8750 0.1250 (   905 PWs)   bands (ev):

    -1.7856   1.7991   5.2627   6.5776

          k =-0.3750 0.3750 0.3750 (   911 PWs)   bands (ev):

    -4.8619   1.9702   9.7483   9.7483

          k = 0.3750-0.3750 1.1250 (   899 PWs)   bands (ev):

    -2.1201   1.0954   4.7992   8.1869

     highest occupied level (ev):    11.5169

!    total energy              =     -24.07079196 Ry
     estimated scf accuracy    <          9.5E-09 Ry

     The total energy is the sum of the following terms:
     one-electron contribution =       7.46745900 Ry
     hartree contribution      =       2.00567040 Ry
     xc contribution           =      -8.56166956 Ry
     ewald contribution        =     -24.98225180 Ry

     convergence has been achieved in   6 iterations

     Writing output data file ./tmp/diamond.save/

     init_run     :      0.54s CPU      0.12s WALL (       1 calls)
     electrons    :      9.28s CPU      1.26s WALL (       1 calls)

     Called by init_run:
     wfcinit      :      0.43s CPU      0.06s WALL (       1 calls)
     potinit      :      0.02s CPU      0.01s WALL (       1 calls)
     hinit0       :      0.09s CPU      0.05s WALL (       1 calls)

     Called by electrons:
     c_bands      :      8.74s CPU      1.12s WALL (       6 calls)
     sum_band     :      0.39s CPU      0.06s WALL (       6 calls)
     v_of_rho     :      0.15s CPU      0.07s WALL (       7 calls)
     mix_rho      :      0.01s CPU      0.01s WALL (       6 calls)

     Called by c_bands:
     init_us_2    :      0.17s CPU      0.01s WALL (     130 calls)
     cegterg      :      8.43s CPU      1.09s WALL (      60 calls)

     Called by *egterg:
     cdiaghg      :      0.12s CPU      0.01s WALL (     242 calls)
     h_psi        :      8.40s CPU      1.11s WALL (     252 calls)
     g_psi        :      0.03s CPU      0.00s WALL (     182 calls)

     Called by h_psi:
     h_psi:calbec :      2.77s CPU      0.37s WALL (     252 calls)
     vloc_psi     :      3.16s CPU      0.41s WALL (     252 calls)
     add_vuspsi   :      2.45s CPU      0.33s WALL (     252 calls)

     General routines
     calbec       :      2.77s CPU      0.37s WALL (     252 calls)
     fft          :      0.07s CPU      0.03s WALL (      70 calls)
     ffts         :      0.00s CPU      0.00s WALL (       6 calls)
     fftw         :      2.90s CPU      0.39s WALL (    2012 calls)

     Parallel routines

     PWSCF        :      9.92s CPU      1.45s WALL


   This run was terminated on:  15:14:32   5Jan2024            

=------------------------------------------------------------------------------=
   JOB DONE.
=------------------------------------------------------------------------------=
