
     Program PWSCF v.6.6 starts on  5Jan2024 at 11:11:40 

     This program is part of the open-source Quantum ESPRESSO suite
     for quantum simulation of materials; please cite
         "P. Giannozzi et al., J. Phys.:Condens. Matter 21 395502 (2009);
         "P. Giannozzi et al., J. Phys.:Condens. Matter 29 465901 (2017);
          URL http://www.quantum-espresso.org", 
     in publications or presentations arising from this work. More details at
     http://www.quantum-espresso.org/quote

     Parallel version (MPI), running on     1 processors

     MPI processes distributed on     1 nodes
     Fft bands division:     nmany     =       1
     Reading input from lattice-in_7.08.in

     Current dimensions of program PWSCF are:
     Max number of different atomic species (ntypx) = 10
     Max number of k-points (npk) =  40000
     Max angular momentum in pseudopotentials (lmaxx) =  3

     Subspace diagonalization in iterative solution of the eigenvalue problem:
     a serial algorithm will be used


     G-vector sticks info
     --------------------
     sticks:   dense  smooth     PW     G-vecs:    dense   smooth      PW
     Sum         511     511    163                 7799     7799    1411



     bravais-lattice index     =            2
     lattice parameter (alat)  =       7.0800  a.u.
     unit-cell volume          =      88.7237 (a.u.)^3
     number of atoms/cell      =            2
     number of atomic types    =            1
     number of electrons       =         8.00
     number of Kohn-Sham states=            4
     kinetic-energy cutoff     =      75.0000  Ry
     charge density cutoff     =     300.0000  Ry
     convergence threshold     =      1.0E-08
     mixing beta               =       0.7000
     number of iterations used =            8  plain     mixing
     Exchange-correlation= PBE
                           (   1   4   3   4   0   0   0)

     celldm(1)=   7.080000  celldm(2)=   0.000000  celldm(3)=   0.000000
     celldm(4)=   0.000000  celldm(5)=   0.000000  celldm(6)=   0.000000

     crystal axes: (cart. coord. in units of alat)
               a(1) = (  -0.500000   0.000000   0.500000 )  
               a(2) = (   0.000000   0.500000   0.500000 )  
               a(3) = (  -0.500000   0.500000   0.000000 )  

     reciprocal axes: (cart. coord. in units 2 pi/alat)
               b(1) = ( -1.000000 -1.000000  1.000000 )  
               b(2) = (  1.000000  1.000000  1.000000 )  
               b(3) = ( -1.000000  1.000000 -1.000000 )  


     PseudoPot. # 1 for C  read from file:
     ./C.UPF
     MD5 check sum: ead9220225bd72a2f9a48cc2a638047d
     Pseudo is Norm-conserving + core correction, Zval =  4.0
     Generated using ONCVPSP code by D. R. Hamann
     Using radial grid of 1248 points,  4 beta functions with: 
                l(1) =   0
                l(2) =   0
                l(3) =   1
                l(4) =   1

     atomic species   valence    mass     pseudopotential
        C              4.00    12.01070     C ( 1.00)

     48 Sym. Ops., with inversion, found (24 have fractional translation)



   Cartesian axes

     site n.     atom                  positions (alat units)
         1           C   tau(   1) = (   0.0000000   0.0000000   0.0000000  )
         2           C   tau(   2) = (  -0.2500000   0.2500000   0.2500000  )

     number of k points=    10
                       cart. coord. in units 2pi/alat
        k(    1) = (  -0.1250000   0.1250000   0.1250000), wk =   0.0625000
        k(    2) = (  -0.3750000   0.3750000  -0.1250000), wk =   0.1875000
        k(    3) = (   0.3750000  -0.3750000   0.6250000), wk =   0.1875000
        k(    4) = (   0.1250000  -0.1250000   0.3750000), wk =   0.1875000
        k(    5) = (  -0.1250000   0.6250000   0.1250000), wk =   0.1875000
        k(    6) = (   0.6250000  -0.1250000   0.8750000), wk =   0.3750000
        k(    7) = (   0.3750000   0.1250000   0.6250000), wk =   0.3750000
        k(    8) = (  -0.1250000  -0.8750000   0.1250000), wk =   0.1875000
        k(    9) = (  -0.3750000   0.3750000   0.3750000), wk =   0.0625000
        k(   10) = (   0.3750000  -0.3750000   1.1250000), wk =   0.1875000

     Dense  grid:     7799 G-vectors     FFT dimensions: (  32,  32,  32)

     Estimated max dynamical RAM per process >       7.02 MB

     Initial potential from superposition of free atoms

     starting charge    7.99991, renormalised to    8.00000
     Starting wfcs are    8 randomized atomic wfcs

     total cpu time spent up to now is        0.2 secs

     Self-consistent Calculation

     iteration #  1     ecut=    75.00 Ry     beta= 0.70
     Davidson diagonalization with overlap
     ethr =  1.00E-02,  avg # of iterations =  2.0

     Threshold (ethr) on eigenvalues was too large:
     Diagonalizing with lowered threshold

     Davidson diagonalization with overlap
     ethr =  9.40E-04,  avg # of iterations =  1.3

     total cpu time spent up to now is        0.4 secs

     total energy              =     -24.04889951 Ry
     estimated scf accuracy    <       0.07972999 Ry

     iteration #  2     ecut=    75.00 Ry     beta= 0.70
     Davidson diagonalization with overlap
     ethr =  9.97E-04,  avg # of iterations =  1.0

     total cpu time spent up to now is        0.5 secs

     total energy              =     -24.05346556 Ry
     estimated scf accuracy    <       0.00238286 Ry

     iteration #  3     ecut=    75.00 Ry     beta= 0.70
     Davidson diagonalization with overlap
     ethr =  2.98E-05,  avg # of iterations =  2.7

     total cpu time spent up to now is        1.1 secs

     total energy              =     -24.05414439 Ry
     estimated scf accuracy    <       0.00007062 Ry

     iteration #  4     ecut=    75.00 Ry     beta= 0.70
     Davidson diagonalization with overlap
     ethr =  8.83E-07,  avg # of iterations =  4.2

     total cpu time spent up to now is        1.4 secs

     total energy              =     -24.05420905 Ry
     estimated scf accuracy    <       0.00000103 Ry

     iteration #  5     ecut=    75.00 Ry     beta= 0.70
     Davidson diagonalization with overlap
     ethr =  1.29E-08,  avg # of iterations =  5.9

     total cpu time spent up to now is        1.6 secs

     total energy              =     -24.05421177 Ry
     estimated scf accuracy    <       0.00000007 Ry

     iteration #  6     ecut=    75.00 Ry     beta= 0.70
     Davidson diagonalization with overlap
     ethr =  8.28E-10,  avg # of iterations =  3.7

     total cpu time spent up to now is        1.7 secs

     total energy              =     -24.05421180 Ry
     estimated scf accuracy    <       0.00000002 Ry

     iteration #  7     ecut=    75.00 Ry     beta= 0.70
     Davidson diagonalization with overlap
     ethr =  2.89E-10,  avg # of iterations =  2.1

     total cpu time spent up to now is        1.8 secs

     End of self-consistent calculation

          k =-0.1250 0.1250 0.1250 (   953 PWs)   bands (ev):

    -8.3711   8.6729  10.2869  10.2869

          k =-0.3750 0.3750-0.1250 (   964 PWs)   bands (ev):

    -6.3422   3.8147   6.9905   9.2360

          k = 0.3750-0.3750 0.6250 (   976 PWs)   bands (ev):

    -3.7571  -0.3680   7.1278   7.7815

          k = 0.1250-0.1250 0.3750 (   962 PWs)   bands (ev):

    -7.3436   6.2303   8.3761   8.9734

          k =-0.1250 0.6250 0.1250 (   981 PWs)   bands (ev):

    -5.3370   3.8735   6.2159   6.6465

          k = 0.6250-0.1250 0.8750 (   977 PWs)   bands (ev):

    -1.9134   0.5330   3.5081   5.3704

          k = 0.3750 0.1250 0.6250 (   977 PWs)   bands (ev):

    -4.4213   1.8981   5.2552   7.2956

          k =-0.1250-0.8750 0.1250 (   978 PWs)   bands (ev):

    -2.4847   0.8846   4.4962   5.7043

          k =-0.3750 0.3750 0.3750 (   972 PWs)   bands (ev):

    -5.3937   1.2399   8.6384   8.6384

          k = 0.3750-0.3750 1.1250 (   974 PWs)   bands (ev):

    -2.8561   0.3936   3.9743   7.1966

     highest occupied level (ev):    10.2869

!    total energy              =     -24.05421180 Ry
     estimated scf accuracy    <          3.9E-10 Ry

     The total energy is the sum of the following terms:
     one-electron contribution =       6.63973720 Ry
     hartree contribution      =       2.09031946 Ry
     xc contribution           =      -8.43715866 Ry
     ewald contribution        =     -24.34710980 Ry

     convergence has been achieved in   7 iterations

     Writing output data file ./tmp/diamond.save/

     init_run     :      0.50s CPU      0.12s WALL (       1 calls)
     electrons    :     11.21s CPU      1.59s WALL (       1 calls)

     Called by init_run:
     wfcinit      :      0.40s CPU      0.06s WALL (       1 calls)
     potinit      :      0.02s CPU      0.01s WALL (       1 calls)
     hinit0       :      0.07s CPU      0.04s WALL (       1 calls)

     Called by electrons:
     c_bands      :     10.47s CPU      1.41s WALL (       8 calls)
     sum_band     :      0.60s CPU      0.10s WALL (       8 calls)
     v_of_rho     :      0.14s CPU      0.07s WALL (       8 calls)
     mix_rho      :      0.02s CPU      0.01s WALL (       8 calls)

     Called by c_bands:
     init_us_2    :      0.09s CPU      0.02s WALL (     170 calls)
     cegterg      :     10.31s CPU      1.38s WALL (      80 calls)

     Called by *egterg:
     cdiaghg      :      0.06s CPU      0.01s WALL (     299 calls)
     h_psi        :     10.28s CPU      1.39s WALL (     319 calls)
     g_psi        :      0.01s CPU      0.00s WALL (     229 calls)

     Called by h_psi:
     h_psi:calbec :      4.58s CPU      0.63s WALL (     319 calls)
     vloc_psi     :      3.21s CPU      0.42s WALL (     319 calls)
     add_vuspsi   :      2.48s CPU      0.33s WALL (     319 calls)

     General routines
     calbec       :      4.54s CPU      0.63s WALL (     319 calls)
     fft          :      0.09s CPU      0.03s WALL (      81 calls)
     ffts         :      0.01s CPU      0.00s WALL (       8 calls)
     fftw         :      3.01s CPU      0.41s WALL (    2526 calls)

     Parallel routines

     PWSCF        :     11.89s CPU      1.78s WALL


   This run was terminated on:  11:11:41   5Jan2024            

=------------------------------------------------------------------------------=
   JOB DONE.
=------------------------------------------------------------------------------=
