
     Program PWSCF v.6.6 starts on 19Dec2023 at 23:38:30 

     This program is part of the open-source Quantum ESPRESSO suite
     for quantum simulation of materials; please cite
         "P. Giannozzi et al., J. Phys.:Condens. Matter 21 395502 (2009);
         "P. Giannozzi et al., J. Phys.:Condens. Matter 29 465901 (2017);
          URL http://www.quantum-espresso.org", 
     in publications or presentations arising from this work. More details at
     http://www.quantum-espresso.org/quote

     Parallel version (MPI), running on     1 processors

     MPI processes distributed on     1 nodes
     Fft bands division:     nmany     =       1
     Reading input from lattice-in_7.0.in

     Current dimensions of program PWSCF are:
     Max number of different atomic species (ntypx) = 10
     Max number of k-points (npk) =  40000
     Max angular momentum in pseudopotentials (lmaxx) =  3

     Subspace diagonalization in iterative solution of the eigenvalue problem:
     a serial algorithm will be used


     G-vector sticks info
     --------------------
     sticks:   dense  smooth     PW     G-vecs:    dense   smooth      PW
     Sum         511     511    163                 7631     7631    1363



     bravais-lattice index     =            2
     lattice parameter (alat)  =       7.0000  a.u.
     unit-cell volume          =      85.7500 (a.u.)^3
     number of atoms/cell      =            2
     number of atomic types    =            1
     number of electrons       =         8.00
     number of Kohn-Sham states=            4
     kinetic-energy cutoff     =      75.0000  Ry
     charge density cutoff     =     300.0000  Ry
     convergence threshold     =      1.0E-08
     mixing beta               =       0.7000
     number of iterations used =            8  plain     mixing
     Exchange-correlation= PBE
                           (   1   4   3   4   0   0   0)

     celldm(1)=   7.000000  celldm(2)=   0.000000  celldm(3)=   0.000000
     celldm(4)=   0.000000  celldm(5)=   0.000000  celldm(6)=   0.000000

     crystal axes: (cart. coord. in units of alat)
               a(1) = (  -0.500000   0.000000   0.500000 )  
               a(2) = (   0.000000   0.500000   0.500000 )  
               a(3) = (  -0.500000   0.500000   0.000000 )  

     reciprocal axes: (cart. coord. in units 2 pi/alat)
               b(1) = ( -1.000000 -1.000000  1.000000 )  
               b(2) = (  1.000000  1.000000  1.000000 )  
               b(3) = ( -1.000000  1.000000 -1.000000 )  


     PseudoPot. # 1 for C  read from file:
     ./C.UPF
     MD5 check sum: ead9220225bd72a2f9a48cc2a638047d
     Pseudo is Norm-conserving + core correction, Zval =  4.0
     Generated using ONCVPSP code by D. R. Hamann
     Using radial grid of 1248 points,  4 beta functions with: 
                l(1) =   0
                l(2) =   0
                l(3) =   1
                l(4) =   1

     atomic species   valence    mass     pseudopotential
        C              4.00    12.01070     C ( 1.00)

     48 Sym. Ops., with inversion, found (24 have fractional translation)



   Cartesian axes

     site n.     atom                  positions (alat units)
         1           C   tau(   1) = (   0.0000000   0.0000000   0.0000000  )
         2           C   tau(   2) = (  -0.2500000   0.2500000   0.2500000  )

     number of k points=    10
                       cart. coord. in units 2pi/alat
        k(    1) = (  -0.1250000   0.1250000   0.1250000), wk =   0.0625000
        k(    2) = (  -0.3750000   0.3750000  -0.1250000), wk =   0.1875000
        k(    3) = (   0.3750000  -0.3750000   0.6250000), wk =   0.1875000
        k(    4) = (   0.1250000  -0.1250000   0.3750000), wk =   0.1875000
        k(    5) = (  -0.1250000   0.6250000   0.1250000), wk =   0.1875000
        k(    6) = (   0.6250000  -0.1250000   0.8750000), wk =   0.3750000
        k(    7) = (   0.3750000   0.1250000   0.6250000), wk =   0.3750000
        k(    8) = (  -0.1250000  -0.8750000   0.1250000), wk =   0.1875000
        k(    9) = (  -0.3750000   0.3750000   0.3750000), wk =   0.0625000
        k(   10) = (   0.3750000  -0.3750000   1.1250000), wk =   0.1875000

     Dense  grid:     7631 G-vectors     FFT dimensions: (  32,  32,  32)

     Estimated max dynamical RAM per process >       6.92 MB

     Initial potential from superposition of free atoms

     starting charge    7.99991, renormalised to    8.00000
     Starting wfcs are    8 randomized atomic wfcs

     total cpu time spent up to now is        0.2 secs

     Self-consistent Calculation

     iteration #  1     ecut=    75.00 Ry     beta= 0.70
     Davidson diagonalization with overlap
     ethr =  1.00E-02,  avg # of iterations =  2.0

     total cpu time spent up to now is        0.3 secs

     total energy              =     -24.05649861 Ry
     estimated scf accuracy    <       0.08202086 Ry

     iteration #  2     ecut=    75.00 Ry     beta= 0.70
     Davidson diagonalization with overlap
     ethr =  1.03E-03,  avg # of iterations =  1.4

     total cpu time spent up to now is        0.4 secs

     total energy              =     -24.06153454 Ry
     estimated scf accuracy    <       0.00321841 Ry

     iteration #  3     ecut=    75.00 Ry     beta= 0.70
     Davidson diagonalization with overlap
     ethr =  4.02E-05,  avg # of iterations =  3.0

     total cpu time spent up to now is        0.5 secs

     total energy              =     -24.06279379 Ry
     estimated scf accuracy    <       0.00007638 Ry

     iteration #  4     ecut=    75.00 Ry     beta= 0.70
     Davidson diagonalization with overlap
     ethr =  9.55E-07,  avg # of iterations =  5.0

     total cpu time spent up to now is        0.6 secs

     total energy              =     -24.06290004 Ry
     estimated scf accuracy    <       0.00001147 Ry

     iteration #  5     ecut=    75.00 Ry     beta= 0.70
     Davidson diagonalization with overlap
     ethr =  1.43E-07,  avg # of iterations =  3.0

     total cpu time spent up to now is        0.7 secs

     total energy              =     -24.06290340 Ry
     estimated scf accuracy    <       0.00000059 Ry

     iteration #  6     ecut=    75.00 Ry     beta= 0.70
     Davidson diagonalization with overlap
     ethr =  7.43E-09,  avg # of iterations =  3.0

     total cpu time spent up to now is        0.8 secs

     total energy              =     -24.06290360 Ry
     estimated scf accuracy    <       0.00000001 Ry

     iteration #  7     ecut=    75.00 Ry     beta= 0.70
     Davidson diagonalization with overlap
     ethr =  1.83E-10,  avg # of iterations =  5.1

     total cpu time spent up to now is        0.9 secs

     End of self-consistent calculation

          k =-0.1250 0.1250 0.1250 (   932 PWs)   bands (ev):

    -8.2244   9.1759  10.8200  10.8200

          k =-0.3750 0.3750-0.1250 (   943 PWs)   bands (ev):

    -6.1421   4.2081   7.4303   9.7375

          k = 0.3750-0.3750 0.6250 (   937 PWs)   bands (ev):

    -3.4599  -0.1107   7.5846   8.2317

          k = 0.1250-0.1250 0.3750 (   939 PWs)   bands (ev):

    -7.1709   6.6832   8.8398   9.4906

          k =-0.1250 0.6250 0.1250 (   942 PWs)   bands (ev):

    -5.1118   4.3116   6.6342   7.0544

          k = 0.6250-0.1250 0.8750 (   938 PWs)   bands (ev):

    -1.5732   0.9009   3.8192   5.7299

          k = 0.3750 0.1250 0.6250 (   939 PWs)   bands (ev):

    -4.1653   2.2555   5.6533   7.7302

          k =-0.1250-0.8750 0.1250 (   953 PWs)   bands (ev):

    -2.1811   1.2818   4.8283   6.0828

          k =-0.3750 0.3750 0.3750 (   941 PWs)   bands (ev):

    -5.1629   1.5567   9.1193   9.1193

          k = 0.3750-0.3750 1.1250 (   945 PWs)   bands (ev):

    -2.5369   0.6999   4.3304   7.6259

     highest occupied level (ev):    10.8200

!    total energy              =     -24.06290361 Ry
     estimated scf accuracy    <          1.5E-09 Ry

     The total energy is the sum of the following terms:
     one-electron contribution =       7.00133097 Ry
     hartree contribution      =       2.05250869 Ry
     xc contribution           =      -8.49138079 Ry
     ewald contribution        =     -24.62536249 Ry

     convergence has been achieved in   7 iterations

     Writing output data file ./tmp/diamond.save/

     init_run     :      0.39s CPU      0.11s WALL (       1 calls)
     electrons    :      5.92s CPU      0.71s WALL (       1 calls)

     Called by init_run:
     wfcinit      :      0.29s CPU      0.05s WALL (       1 calls)
     potinit      :      0.02s CPU      0.01s WALL (       1 calls)
     hinit0       :      0.07s CPU      0.04s WALL (       1 calls)

     Called by electrons:
     c_bands      :      5.05s CPU      0.54s WALL (       7 calls)
     sum_band     :      0.72s CPU      0.09s WALL (       7 calls)
     v_of_rho     :      0.15s CPU      0.08s WALL (       8 calls)
     mix_rho      :      0.01s CPU      0.01s WALL (       7 calls)

     Called by c_bands:
     init_us_2    :      0.07s CPU      0.02s WALL (     150 calls)
     cegterg      :      4.89s CPU      0.51s WALL (      70 calls)

     Called by *egterg:
     cdiaghg      :      0.09s CPU      0.01s WALL (     295 calls)
     h_psi        :      4.77s CPU      0.51s WALL (     305 calls)
     g_psi        :      0.01s CPU      0.00s WALL (     225 calls)

     Called by h_psi:
     h_psi:calbec :      0.28s CPU      0.03s WALL (     305 calls)
     vloc_psi     :      3.94s CPU      0.42s WALL (     305 calls)
     add_vuspsi   :      0.53s CPU      0.05s WALL (     305 calls)

     General routines
     calbec       :      0.28s CPU      0.03s WALL (     305 calls)
     fft          :      0.12s CPU      0.04s WALL (      80 calls)
     ffts         :      0.09s CPU      0.00s WALL (       7 calls)
     fftw         :      3.63s CPU      0.41s WALL (    2344 calls)

     Parallel routines

     PWSCF        :      6.44s CPU      0.89s WALL


   This run was terminated on:  23:38:31  19Dec2023            

=------------------------------------------------------------------------------=
   JOB DONE.
=------------------------------------------------------------------------------=
