
     Program PWSCF v.6.6 starts on  5Jan2024 at 11:11:32 

     This program is part of the open-source Quantum ESPRESSO suite
     for quantum simulation of materials; please cite
         "P. Giannozzi et al., J. Phys.:Condens. Matter 21 395502 (2009);
         "P. Giannozzi et al., J. Phys.:Condens. Matter 29 465901 (2017);
          URL http://www.quantum-espresso.org", 
     in publications or presentations arising from this work. More details at
     http://www.quantum-espresso.org/quote

     Parallel version (MPI), running on     1 processors

     MPI processes distributed on     1 nodes
     Fft bands division:     nmany     =       1
     Reading input from lattice-in_7.04.in

     Current dimensions of program PWSCF are:
     Max number of different atomic species (ntypx) = 10
     Max number of k-points (npk) =  40000
     Max angular momentum in pseudopotentials (lmaxx) =  3

     Subspace diagonalization in iterative solution of the eigenvalue problem:
     a serial algorithm will be used


     G-vector sticks info
     --------------------
     sticks:   dense  smooth     PW     G-vecs:    dense   smooth      PW
     Sum         511     511    163                 7727     7727    1363



     bravais-lattice index     =            2
     lattice parameter (alat)  =       7.0400  a.u.
     unit-cell volume          =      87.2284 (a.u.)^3
     number of atoms/cell      =            2
     number of atomic types    =            1
     number of electrons       =         8.00
     number of Kohn-Sham states=            4
     kinetic-energy cutoff     =      75.0000  Ry
     charge density cutoff     =     300.0000  Ry
     convergence threshold     =      1.0E-08
     mixing beta               =       0.7000
     number of iterations used =            8  plain     mixing
     Exchange-correlation= PBE
                           (   1   4   3   4   0   0   0)

     celldm(1)=   7.040000  celldm(2)=   0.000000  celldm(3)=   0.000000
     celldm(4)=   0.000000  celldm(5)=   0.000000  celldm(6)=   0.000000

     crystal axes: (cart. coord. in units of alat)
               a(1) = (  -0.500000   0.000000   0.500000 )  
               a(2) = (   0.000000   0.500000   0.500000 )  
               a(3) = (  -0.500000   0.500000   0.000000 )  

     reciprocal axes: (cart. coord. in units 2 pi/alat)
               b(1) = ( -1.000000 -1.000000  1.000000 )  
               b(2) = (  1.000000  1.000000  1.000000 )  
               b(3) = ( -1.000000  1.000000 -1.000000 )  


     PseudoPot. # 1 for C  read from file:
     ./C.UPF
     MD5 check sum: ead9220225bd72a2f9a48cc2a638047d
     Pseudo is Norm-conserving + core correction, Zval =  4.0
     Generated using ONCVPSP code by D. R. Hamann
     Using radial grid of 1248 points,  4 beta functions with: 
                l(1) =   0
                l(2) =   0
                l(3) =   1
                l(4) =   1

     atomic species   valence    mass     pseudopotential
        C              4.00    12.01070     C ( 1.00)

     48 Sym. Ops., with inversion, found (24 have fractional translation)



   Cartesian axes

     site n.     atom                  positions (alat units)
         1           C   tau(   1) = (   0.0000000   0.0000000   0.0000000  )
         2           C   tau(   2) = (  -0.2500000   0.2500000   0.2500000  )

     number of k points=    10
                       cart. coord. in units 2pi/alat
        k(    1) = (  -0.1250000   0.1250000   0.1250000), wk =   0.0625000
        k(    2) = (  -0.3750000   0.3750000  -0.1250000), wk =   0.1875000
        k(    3) = (   0.3750000  -0.3750000   0.6250000), wk =   0.1875000
        k(    4) = (   0.1250000  -0.1250000   0.3750000), wk =   0.1875000
        k(    5) = (  -0.1250000   0.6250000   0.1250000), wk =   0.1875000
        k(    6) = (   0.6250000  -0.1250000   0.8750000), wk =   0.3750000
        k(    7) = (   0.3750000   0.1250000   0.6250000), wk =   0.3750000
        k(    8) = (  -0.1250000  -0.8750000   0.1250000), wk =   0.1875000
        k(    9) = (  -0.3750000   0.3750000   0.3750000), wk =   0.0625000
        k(   10) = (   0.3750000  -0.3750000   1.1250000), wk =   0.1875000

     Dense  grid:     7727 G-vectors     FFT dimensions: (  32,  32,  32)

     Estimated max dynamical RAM per process >       6.97 MB

     Initial potential from superposition of free atoms

     starting charge    7.99991, renormalised to    8.00000
     Starting wfcs are    8 randomized atomic wfcs

     total cpu time spent up to now is        0.2 secs

     Self-consistent Calculation

     iteration #  1     ecut=    75.00 Ry     beta= 0.70
     Davidson diagonalization with overlap
     ethr =  1.00E-02,  avg # of iterations =  2.0

     Threshold (ethr) on eigenvalues was too large:
     Diagonalizing with lowered threshold

     Davidson diagonalization with overlap
     ethr =  9.79E-04,  avg # of iterations =  1.3

     total cpu time spent up to now is        0.4 secs

     total energy              =     -24.05329614 Ry
     estimated scf accuracy    <       0.08306589 Ry

     iteration #  2     ecut=    75.00 Ry     beta= 0.70
     Davidson diagonalization with overlap
     ethr =  1.04E-03,  avg # of iterations =  1.0

     total cpu time spent up to now is        0.5 secs

     total energy              =     -24.05802380 Ry
     estimated scf accuracy    <       0.00244705 Ry

     iteration #  3     ecut=    75.00 Ry     beta= 0.70
     Davidson diagonalization with overlap
     ethr =  3.06E-05,  avg # of iterations =  2.5

     total cpu time spent up to now is        0.9 secs

     total energy              =     -24.05872605 Ry
     estimated scf accuracy    <       0.00007102 Ry

     iteration #  4     ecut=    75.00 Ry     beta= 0.70
     Davidson diagonalization with overlap
     ethr =  8.88E-07,  avg # of iterations =  5.0

     total cpu time spent up to now is        1.3 secs

     total energy              =     -24.05879957 Ry
     estimated scf accuracy    <       0.00000102 Ry

     iteration #  5     ecut=    75.00 Ry     beta= 0.70
     Davidson diagonalization with overlap
     ethr =  1.27E-08,  avg # of iterations =  5.1

     total cpu time spent up to now is        1.5 secs

     total energy              =     -24.05880128 Ry
     estimated scf accuracy    <       0.00000006 Ry

     iteration #  6     ecut=    75.00 Ry     beta= 0.70
     Davidson diagonalization with overlap
     ethr =  7.46E-10,  avg # of iterations =  3.4

     total cpu time spent up to now is        1.6 secs

     total energy              =     -24.05880131 Ry
     estimated scf accuracy    <       0.00000002 Ry

     iteration #  7     ecut=    75.00 Ry     beta= 0.70
     Davidson diagonalization with overlap
     ethr =  1.94E-10,  avg # of iterations =  1.7

     total cpu time spent up to now is        1.7 secs

     End of self-consistent calculation

          k =-0.1250 0.1250 0.1250 (   944 PWs)   bands (ev):

    -8.2986   8.9222  10.5507  10.5507

          k =-0.3750 0.3750-0.1250 (   952 PWs)   bands (ev):

    -6.2432   4.0096   7.2083   9.4842

          k = 0.3750-0.3750 0.6250 (   958 PWs)   bands (ev):

    -3.6100  -0.2405   7.3538   8.0044

          k = 0.1250-0.1250 0.3750 (   952 PWs)   bands (ev):

    -7.2582   6.4549   8.6055   9.2293

          k =-0.1250 0.6250 0.1250 (   957 PWs)   bands (ev):

    -5.2255   4.0909   6.4228   6.8485

          k = 0.6250-0.1250 0.8750 (   959 PWs)   bands (ev):

    -1.7449   0.7155   3.6618   5.5483

          k = 0.3750 0.1250 0.6250 (   954 PWs)   bands (ev):

    -4.2945   2.0754   5.4521   7.5107

          k =-0.1250-0.8750 0.1250 (   965 PWs)   bands (ev):

    -2.3343   1.0814   4.6606   5.8918

          k =-0.3750 0.3750 0.3750 (   941 PWs)   bands (ev):

    -5.2794   1.3968   8.8765   8.8765

          k = 0.3750-0.3750 1.1250 (   961 PWs)   bands (ev):

    -2.6981   0.5456   4.1503   7.4090

     highest occupied level (ev):    10.5507

!    total energy              =     -24.05880131 Ry
     estimated scf accuracy    <          5.9E-12 Ry

     The total energy is the sum of the following terms:
     one-electron contribution =       6.81931796 Ry
     hartree contribution      =       2.07137491 Ry
     xc contribution           =      -8.46404853 Ry
     ewald contribution        =     -24.48544566 Ry

     convergence has been achieved in   7 iterations

     Writing output data file ./tmp/diamond.save/

     init_run     :      0.56s CPU      0.11s WALL (       1 calls)
     electrons    :     11.13s CPU      1.57s WALL (       1 calls)

     Called by init_run:
     wfcinit      :      0.46s CPU      0.06s WALL (       1 calls)
     potinit      :      0.02s CPU      0.01s WALL (       1 calls)
     hinit0       :      0.07s CPU      0.04s WALL (       1 calls)

     Called by electrons:
     c_bands      :     10.57s CPU      1.38s WALL (       8 calls)
     sum_band     :      0.37s CPU      0.10s WALL (       8 calls)
     v_of_rho     :      0.18s CPU      0.09s WALL (       8 calls)
     mix_rho      :      0.01s CPU      0.01s WALL (       8 calls)

     Called by c_bands:
     init_us_2    :      0.08s CPU      0.02s WALL (     170 calls)
     cegterg      :     10.31s CPU      1.35s WALL (      80 calls)

     Called by *egterg:
     cdiaghg      :      0.05s CPU      0.01s WALL (     290 calls)
     h_psi        :     10.33s CPU      1.35s WALL (     310 calls)
     g_psi        :      0.03s CPU      0.00s WALL (     220 calls)

     Called by h_psi:
     h_psi:calbec :      3.90s CPU      0.51s WALL (     310 calls)
     vloc_psi     :      3.31s CPU      0.48s WALL (     310 calls)
     add_vuspsi   :      3.08s CPU      0.36s WALL (     310 calls)

     General routines
     calbec       :      3.90s CPU      0.51s WALL (     310 calls)
     fft          :      0.09s CPU      0.05s WALL (      81 calls)
     ffts         :      0.01s CPU      0.00s WALL (       8 calls)
     fftw         :      3.12s CPU      0.46s WALL (    2466 calls)

     Parallel routines

     PWSCF        :     11.86s CPU      1.76s WALL


   This run was terminated on:  11:11:34   5Jan2024            

=------------------------------------------------------------------------------=
   JOB DONE.
=------------------------------------------------------------------------------=
