
     Program PWSCF v.6.6 starts on 19Dec2023 at 23:37:58 

     This program is part of the open-source Quantum ESPRESSO suite
     for quantum simulation of materials; please cite
         "P. Giannozzi et al., J. Phys.:Condens. Matter 21 395502 (2009);
         "P. Giannozzi et al., J. Phys.:Condens. Matter 29 465901 (2017);
          URL http://www.quantum-espresso.org", 
     in publications or presentations arising from this work. More details at
     http://www.quantum-espresso.org/quote

     Parallel version (MPI), running on     1 processors

     MPI processes distributed on     1 nodes
     Fft bands division:     nmany     =       1
     Reading input from lattice-in_6.64.in

     Current dimensions of program PWSCF are:
     Max number of different atomic species (ntypx) = 10
     Max number of k-points (npk) =  40000
     Max angular momentum in pseudopotentials (lmaxx) =  3

     Subspace diagonalization in iterative solution of the eigenvalue problem:
     a serial algorithm will be used


     G-vector sticks info
     --------------------
     sticks:   dense  smooth     PW     G-vecs:    dense   smooth      PW
     Sum         451     451    151                 6375     6375    1243



     bravais-lattice index     =            2
     lattice parameter (alat)  =       6.6400  a.u.
     unit-cell volume          =      73.1887 (a.u.)^3
     number of atoms/cell      =            2
     number of atomic types    =            1
     number of electrons       =         8.00
     number of Kohn-Sham states=            4
     kinetic-energy cutoff     =      75.0000  Ry
     charge density cutoff     =     300.0000  Ry
     convergence threshold     =      1.0E-08
     mixing beta               =       0.7000
     number of iterations used =            8  plain     mixing
     Exchange-correlation= PBE
                           (   1   4   3   4   0   0   0)

     celldm(1)=   6.640000  celldm(2)=   0.000000  celldm(3)=   0.000000
     celldm(4)=   0.000000  celldm(5)=   0.000000  celldm(6)=   0.000000

     crystal axes: (cart. coord. in units of alat)
               a(1) = (  -0.500000   0.000000   0.500000 )  
               a(2) = (   0.000000   0.500000   0.500000 )  
               a(3) = (  -0.500000   0.500000   0.000000 )  

     reciprocal axes: (cart. coord. in units 2 pi/alat)
               b(1) = ( -1.000000 -1.000000  1.000000 )  
               b(2) = (  1.000000  1.000000  1.000000 )  
               b(3) = ( -1.000000  1.000000 -1.000000 )  


     PseudoPot. # 1 for C  read from file:
     ./C.UPF
     MD5 check sum: ead9220225bd72a2f9a48cc2a638047d
     Pseudo is Norm-conserving + core correction, Zval =  4.0
     Generated using ONCVPSP code by D. R. Hamann
     Using radial grid of 1248 points,  4 beta functions with: 
                l(1) =   0
                l(2) =   0
                l(3) =   1
                l(4) =   1

     atomic species   valence    mass     pseudopotential
        C              4.00    12.01070     C ( 1.00)

     48 Sym. Ops., with inversion, found (24 have fractional translation)



   Cartesian axes

     site n.     atom                  positions (alat units)
         1           C   tau(   1) = (   0.0000000   0.0000000   0.0000000  )
         2           C   tau(   2) = (  -0.2500000   0.2500000   0.2500000  )

     number of k points=    10
                       cart. coord. in units 2pi/alat
        k(    1) = (  -0.1250000   0.1250000   0.1250000), wk =   0.0625000
        k(    2) = (  -0.3750000   0.3750000  -0.1250000), wk =   0.1875000
        k(    3) = (   0.3750000  -0.3750000   0.6250000), wk =   0.1875000
        k(    4) = (   0.1250000  -0.1250000   0.3750000), wk =   0.1875000
        k(    5) = (  -0.1250000   0.6250000   0.1250000), wk =   0.1875000
        k(    6) = (   0.6250000  -0.1250000   0.8750000), wk =   0.3750000
        k(    7) = (   0.3750000   0.1250000   0.6250000), wk =   0.3750000
        k(    8) = (  -0.1250000  -0.8750000   0.1250000), wk =   0.1875000
        k(    9) = (  -0.3750000   0.3750000   0.3750000), wk =   0.0625000
        k(   10) = (   0.3750000  -0.3750000   1.1250000), wk =   0.1875000

     Dense  grid:     6375 G-vectors     FFT dimensions: (  32,  32,  32)

     Estimated max dynamical RAM per process >       6.23 MB

     Initial potential from superposition of free atoms

     starting charge    7.99991, renormalised to    8.00000
     Starting wfcs are    8 randomized atomic wfcs

     total cpu time spent up to now is        0.1 secs

     Self-consistent Calculation

     iteration #  1     ecut=    75.00 Ry     beta= 0.70
     Davidson diagonalization with overlap
     ethr =  1.00E-02,  avg # of iterations =  2.0

     total cpu time spent up to now is        0.2 secs

     total energy              =     -24.06390851 Ry
     estimated scf accuracy    <       0.11986215 Ry

     iteration #  2     ecut=    75.00 Ry     beta= 0.70
     Davidson diagonalization with overlap
     ethr =  1.50E-03,  avg # of iterations =  1.2

     total cpu time spent up to now is        0.3 secs

     total energy              =     -24.07082989 Ry
     estimated scf accuracy    <       0.00397261 Ry

     iteration #  3     ecut=    75.00 Ry     beta= 0.70
     Davidson diagonalization with overlap
     ethr =  4.97E-05,  avg # of iterations =  2.8

     total cpu time spent up to now is        0.4 secs

     total energy              =     -24.07247785 Ry
     estimated scf accuracy    <       0.00008866 Ry

     iteration #  4     ecut=    75.00 Ry     beta= 0.70
     Davidson diagonalization with overlap
     ethr =  1.11E-06,  avg # of iterations =  5.3

     total cpu time spent up to now is        0.5 secs

     total energy              =     -24.07258400 Ry
     estimated scf accuracy    <       0.00001291 Ry

     iteration #  5     ecut=    75.00 Ry     beta= 0.70
     Davidson diagonalization with overlap
     ethr =  1.61E-07,  avg # of iterations =  2.5

     total cpu time spent up to now is        0.6 secs

     total energy              =     -24.07258737 Ry
     estimated scf accuracy    <       0.00000135 Ry

     iteration #  6     ecut=    75.00 Ry     beta= 0.70
     Davidson diagonalization with overlap
     ethr =  1.68E-08,  avg # of iterations =  2.5

     total cpu time spent up to now is        0.7 secs

     total energy              =     -24.07258766 Ry
     estimated scf accuracy    <       0.00000003 Ry

     iteration #  7     ecut=    75.00 Ry     beta= 0.70
     Davidson diagonalization with overlap
     ethr =  3.64E-10,  avg # of iterations =  4.3

     total cpu time spent up to now is        0.8 secs

     End of self-consistent calculation

          k =-0.1250 0.1250 0.1250 (   815 PWs)   bands (ev):

    -7.4733  11.6846  13.4997  13.4997

          k =-0.3750 0.3750-0.1250 (   804 PWs)   bands (ev):

    -5.1353   6.1636   9.6439  12.2604

          k = 0.3750-0.3750 0.6250 (   805 PWs)   bands (ev):

    -1.9710   1.1722   9.8807  10.4935

          k = 0.1250-0.1250 0.3750 (   810 PWs)   bands (ev):

    -6.2947   8.9260  11.1666  12.0985

          k =-0.1250 0.6250 0.1250 (   811 PWs)   bands (ev):

    -3.9825   6.4615   8.7655   9.1007

          k = 0.6250-0.1250 0.8750 (   800 PWs)   bands (ev):

     0.1281   2.7069   5.4168   7.5336

          k = 0.3750 0.1250 0.6250 (   800 PWs)   bands (ev):

    -2.8881   4.0216   7.6722   9.9173

          k =-0.1250-0.8750 0.1250 (   792 PWs)   bands (ev):

    -0.6689   3.2617   6.4987   7.9841

          k =-0.3750 0.3750 0.3750 (   808 PWs)   bands (ev):

    -4.0091   3.1472  11.5381  11.5381

          k = 0.3750-0.3750 1.1250 (   798 PWs)   bands (ev):

    -0.9388   2.1975   6.1513   9.7820

     highest occupied level (ev):    13.4997

!    total energy              =     -24.07258770 Ry
     estimated scf accuracy    <          4.3E-09 Ry

     The total energy is the sum of the following terms:
     one-electron contribution =       8.76004216 Ry
     hartree contribution      =       1.88621976 Ry
     xc contribution           =      -8.75837711 Ry
     ewald contribution        =     -25.96047250 Ry

     convergence has been achieved in   7 iterations

     Writing output data file ./tmp/diamond.save/

     init_run     :      0.44s CPU      0.09s WALL (       1 calls)
     electrons    :      5.82s CPU      0.65s WALL (       1 calls)

     Called by init_run:
     wfcinit      :      0.34s CPU      0.04s WALL (       1 calls)
     potinit      :      0.02s CPU      0.01s WALL (       1 calls)
     hinit0       :      0.07s CPU      0.04s WALL (       1 calls)

     Called by electrons:
     c_bands      :      4.60s CPU      0.47s WALL (       7 calls)
     sum_band     :      0.83s CPU      0.09s WALL (       7 calls)
     v_of_rho     :      0.28s CPU      0.08s WALL (       8 calls)
     mix_rho      :      0.07s CPU      0.01s WALL (       7 calls)

     Called by c_bands:
     init_us_2    :      0.09s CPU      0.01s WALL (     150 calls)
     cegterg      :      4.40s CPU      0.44s WALL (      70 calls)

     Called by *egterg:
     cdiaghg      :      0.03s CPU      0.01s WALL (     276 calls)
     h_psi        :      4.41s CPU      0.45s WALL (     286 calls)
     g_psi        :      0.01s CPU      0.00s WALL (     206 calls)

     Called by h_psi:
     h_psi:calbec :      0.28s CPU      0.02s WALL (     286 calls)
     vloc_psi     :      3.89s CPU      0.40s WALL (     286 calls)
     add_vuspsi   :      0.22s CPU      0.02s WALL (     286 calls)

     General routines
     calbec       :      0.28s CPU      0.02s WALL (     286 calls)
     fft          :      0.26s CPU      0.04s WALL (      80 calls)
     ffts         :      0.01s CPU      0.00s WALL (       7 calls)
     fftw         :      3.87s CPU      0.40s WALL (    2288 calls)

     Parallel routines

     PWSCF        :      6.38s CPU      0.81s WALL


   This run was terminated on:  23:37:59  19Dec2023            

=------------------------------------------------------------------------------=
   JOB DONE.
=------------------------------------------------------------------------------=
