
     Program PWSCF v.6.6 starts on 19Dec2023 at 23:37:56 

     This program is part of the open-source Quantum ESPRESSO suite
     for quantum simulation of materials; please cite
         "P. Giannozzi et al., J. Phys.:Condens. Matter 21 395502 (2009);
         "P. Giannozzi et al., J. Phys.:Condens. Matter 29 465901 (2017);
          URL http://www.quantum-espresso.org", 
     in publications or presentations arising from this work. More details at
     http://www.quantum-espresso.org/quote

     Parallel version (MPI), running on     1 processors

     MPI processes distributed on     1 nodes
     Fft bands division:     nmany     =       1
     Reading input from lattice-in_6.61.in

     Current dimensions of program PWSCF are:
     Max number of different atomic species (ntypx) = 10
     Max number of k-points (npk) =  40000
     Max angular momentum in pseudopotentials (lmaxx) =  3

     Subspace diagonalization in iterative solution of the eigenvalue problem:
     a serial algorithm will be used


     G-vector sticks info
     --------------------
     sticks:   dense  smooth     PW     G-vecs:    dense   smooth      PW
     Sum         451     451    151                 6375     6375    1211



     bravais-lattice index     =            2
     lattice parameter (alat)  =       6.6100  a.u.
     unit-cell volume          =      72.2012 (a.u.)^3
     number of atoms/cell      =            2
     number of atomic types    =            1
     number of electrons       =         8.00
     number of Kohn-Sham states=            4
     kinetic-energy cutoff     =      75.0000  Ry
     charge density cutoff     =     300.0000  Ry
     convergence threshold     =      1.0E-08
     mixing beta               =       0.7000
     number of iterations used =            8  plain     mixing
     Exchange-correlation= PBE
                           (   1   4   3   4   0   0   0)

     celldm(1)=   6.610000  celldm(2)=   0.000000  celldm(3)=   0.000000
     celldm(4)=   0.000000  celldm(5)=   0.000000  celldm(6)=   0.000000

     crystal axes: (cart. coord. in units of alat)
               a(1) = (  -0.500000   0.000000   0.500000 )  
               a(2) = (   0.000000   0.500000   0.500000 )  
               a(3) = (  -0.500000   0.500000   0.000000 )  

     reciprocal axes: (cart. coord. in units 2 pi/alat)
               b(1) = ( -1.000000 -1.000000  1.000000 )  
               b(2) = (  1.000000  1.000000  1.000000 )  
               b(3) = ( -1.000000  1.000000 -1.000000 )  


     PseudoPot. # 1 for C  read from file:
     ./C.UPF
     MD5 check sum: ead9220225bd72a2f9a48cc2a638047d
     Pseudo is Norm-conserving + core correction, Zval =  4.0
     Generated using ONCVPSP code by D. R. Hamann
     Using radial grid of 1248 points,  4 beta functions with: 
                l(1) =   0
                l(2) =   0
                l(3) =   1
                l(4) =   1

     atomic species   valence    mass     pseudopotential
        C              4.00    12.01070     C ( 1.00)

     48 Sym. Ops., with inversion, found (24 have fractional translation)



   Cartesian axes

     site n.     atom                  positions (alat units)
         1           C   tau(   1) = (   0.0000000   0.0000000   0.0000000  )
         2           C   tau(   2) = (  -0.2500000   0.2500000   0.2500000  )

     number of k points=    10
                       cart. coord. in units 2pi/alat
        k(    1) = (  -0.1250000   0.1250000   0.1250000), wk =   0.0625000
        k(    2) = (  -0.3750000   0.3750000  -0.1250000), wk =   0.1875000
        k(    3) = (   0.3750000  -0.3750000   0.6250000), wk =   0.1875000
        k(    4) = (   0.1250000  -0.1250000   0.3750000), wk =   0.1875000
        k(    5) = (  -0.1250000   0.6250000   0.1250000), wk =   0.1875000
        k(    6) = (   0.6250000  -0.1250000   0.8750000), wk =   0.3750000
        k(    7) = (   0.3750000   0.1250000   0.6250000), wk =   0.3750000
        k(    8) = (  -0.1250000  -0.8750000   0.1250000), wk =   0.1875000
        k(    9) = (  -0.3750000   0.3750000   0.3750000), wk =   0.0625000
        k(   10) = (   0.3750000  -0.3750000   1.1250000), wk =   0.1875000

     Dense  grid:     6375 G-vectors     FFT dimensions: (  32,  32,  32)

     Estimated max dynamical RAM per process >       6.22 MB

     Initial potential from superposition of free atoms

     starting charge    7.99991, renormalised to    8.00000
     Starting wfcs are    8 randomized atomic wfcs

     total cpu time spent up to now is        0.2 secs

     Self-consistent Calculation

     iteration #  1     ecut=    75.00 Ry     beta= 0.70
     Davidson diagonalization with overlap
     ethr =  1.00E-02,  avg # of iterations =  2.0

     total cpu time spent up to now is        0.2 secs

     total energy              =     -24.06169958 Ry
     estimated scf accuracy    <       0.12368782 Ry

     iteration #  2     ecut=    75.00 Ry     beta= 0.70
     Davidson diagonalization with overlap
     ethr =  1.55E-03,  avg # of iterations =  1.3

     total cpu time spent up to now is        0.3 secs

     total energy              =     -24.06904134 Ry
     estimated scf accuracy    <       0.00400639 Ry

     iteration #  3     ecut=    75.00 Ry     beta= 0.70
     Davidson diagonalization with overlap
     ethr =  5.01E-05,  avg # of iterations =  3.0

     total cpu time spent up to now is        0.4 secs

     total energy              =     -24.07066263 Ry
     estimated scf accuracy    <       0.00009079 Ry

     iteration #  4     ecut=    75.00 Ry     beta= 0.70
     Davidson diagonalization with overlap
     ethr =  1.13E-06,  avg # of iterations =  5.0

     total cpu time spent up to now is        0.5 secs

     total energy              =     -24.07075920 Ry
     estimated scf accuracy    <       0.00001470 Ry

     iteration #  5     ecut=    75.00 Ry     beta= 0.70
     Davidson diagonalization with overlap
     ethr =  1.84E-07,  avg # of iterations =  2.3

     total cpu time spent up to now is        0.6 secs

     total energy              =     -24.07076300 Ry
     estimated scf accuracy    <       0.00000074 Ry

     iteration #  6     ecut=    75.00 Ry     beta= 0.70
     Davidson diagonalization with overlap
     ethr =  9.30E-09,  avg # of iterations =  3.6

     total cpu time spent up to now is        0.7 secs

     total energy              =     -24.07076333 Ry
     estimated scf accuracy    <       0.00000002 Ry

     iteration #  7     ecut=    75.00 Ry     beta= 0.70
     Davidson diagonalization with overlap
     ethr =  2.21E-10,  avg # of iterations =  4.4

     total cpu time spent up to now is        0.8 secs

     End of self-consistent calculation

          k =-0.1250 0.1250 0.1250 (   797 PWs)   bands (ev):

    -7.4031  11.9137  13.7459  13.7459

          k =-0.3750 0.3750-0.1250 (   796 PWs)   bands (ev):

    -5.0426   6.3418   9.8474  12.4921

          k = 0.3750-0.3750 0.6250 (   795 PWs)   bands (ev):

    -1.8348   1.2900  10.0918  10.7012

          k = 0.1250-0.1250 0.3750 (   800 PWs)   bands (ev):

    -6.2135   9.1298  11.3801  12.3384

          k =-0.1250 0.6250 0.1250 (   796 PWs)   bands (ev):

    -3.8788   6.6552   8.9636   9.2885

          k = 0.6250-0.1250 0.8750 (   786 PWs)   bands (ev):

     0.2836   2.8694   5.5667   7.6994

          k = 0.3750 0.1250 0.6250 (   791 PWs)   bands (ev):

    -2.7715   4.1820   7.8588  10.1184

          k =-0.1250-0.8750 0.1250 (   782 PWs)   bands (ev):

    -0.5311   3.4426   6.6521   8.1586

          k =-0.3750 0.3750 0.3750 (   790 PWs)   bands (ev):

    -3.9035   3.2936  11.7604  11.7604

          k = 0.3750-0.3750 1.1250 (   789 PWs)   bands (ev):

    -0.7927   2.3326   6.3207   9.9798

     highest occupied level (ev):    13.7459

!    total energy              =     -24.07076335 Ry
     estimated scf accuracy    <          2.4E-09 Ry

     The total energy is the sum of the following terms:
     one-electron contribution =       8.91735080 Ry
     hartree contribution      =       1.87260741 Ry
     xc contribution           =      -8.78242543 Ry
     ewald contribution        =     -26.07829613 Ry

     convergence has been achieved in   7 iterations

     Writing output data file ./tmp/diamond.save/

     init_run     :      0.43s CPU      0.10s WALL (       1 calls)
     electrons    :      5.82s CPU      0.65s WALL (       1 calls)

     Called by init_run:
     wfcinit      :      0.33s CPU      0.04s WALL (       1 calls)
     potinit      :      0.03s CPU      0.02s WALL (       1 calls)
     hinit0       :      0.07s CPU      0.04s WALL (       1 calls)

     Called by electrons:
     c_bands      :      4.98s CPU      0.50s WALL (       7 calls)
     sum_band     :      0.50s CPU      0.08s WALL (       7 calls)
     v_of_rho     :      0.32s CPU      0.08s WALL (       8 calls)
     mix_rho      :      0.03s CPU      0.01s WALL (       7 calls)

     Called by c_bands:
     init_us_2    :      0.11s CPU      0.01s WALL (     150 calls)
     cegterg      :      4.86s CPU      0.47s WALL (      70 calls)

     Called by *egterg:
     cdiaghg      :      0.04s CPU      0.01s WALL (     286 calls)
     h_psi        :      4.92s CPU      0.48s WALL (     296 calls)
     g_psi        :      0.00s CPU      0.00s WALL (     216 calls)

     Called by h_psi:
     h_psi:calbec :      0.47s CPU      0.04s WALL (     296 calls)
     vloc_psi     :      4.11s CPU      0.40s WALL (     296 calls)
     add_vuspsi   :      0.32s CPU      0.04s WALL (     296 calls)

     General routines
     calbec       :      0.47s CPU      0.04s WALL (     296 calls)
     fft          :      0.12s CPU      0.04s WALL (      80 calls)
     ffts         :      0.02s CPU      0.00s WALL (       7 calls)
     fftw         :      3.79s CPU      0.38s WALL (    2292 calls)

     Parallel routines

     PWSCF        :      6.40s CPU      0.83s WALL


   This run was terminated on:  23:37:56  19Dec2023            

=------------------------------------------------------------------------------=
   JOB DONE.
=------------------------------------------------------------------------------=
