
     Program PWSCF v.6.6 starts on  5Jan2024 at 11:11:24 

     This program is part of the open-source Quantum ESPRESSO suite
     for quantum simulation of materials; please cite
         "P. Giannozzi et al., J. Phys.:Condens. Matter 21 395502 (2009);
         "P. Giannozzi et al., J. Phys.:Condens. Matter 29 465901 (2017);
          URL http://www.quantum-espresso.org", 
     in publications or presentations arising from this work. More details at
     http://www.quantum-espresso.org/quote

     Parallel version (MPI), running on     1 processors

     MPI processes distributed on     1 nodes
     Fft bands division:     nmany     =       1
     Reading input from lattice-in_6.99.in

     Current dimensions of program PWSCF are:
     Max number of different atomic species (ntypx) = 10
     Max number of k-points (npk) =  40000
     Max angular momentum in pseudopotentials (lmaxx) =  3

     Subspace diagonalization in iterative solution of the eigenvalue problem:
     a serial algorithm will be used


     G-vector sticks info
     --------------------
     sticks:   dense  smooth     PW     G-vecs:    dense   smooth      PW
     Sum         511     511    163                 7583     7583    1363



     bravais-lattice index     =            2
     lattice parameter (alat)  =       6.9900  a.u.
     unit-cell volume          =      85.3830 (a.u.)^3
     number of atoms/cell      =            2
     number of atomic types    =            1
     number of electrons       =         8.00
     number of Kohn-Sham states=            4
     kinetic-energy cutoff     =      75.0000  Ry
     charge density cutoff     =     300.0000  Ry
     convergence threshold     =      1.0E-08
     mixing beta               =       0.7000
     number of iterations used =            8  plain     mixing
     Exchange-correlation= PBE
                           (   1   4   3   4   0   0   0)

     celldm(1)=   6.990000  celldm(2)=   0.000000  celldm(3)=   0.000000
     celldm(4)=   0.000000  celldm(5)=   0.000000  celldm(6)=   0.000000

     crystal axes: (cart. coord. in units of alat)
               a(1) = (  -0.500000   0.000000   0.500000 )  
               a(2) = (   0.000000   0.500000   0.500000 )  
               a(3) = (  -0.500000   0.500000   0.000000 )  

     reciprocal axes: (cart. coord. in units 2 pi/alat)
               b(1) = ( -1.000000 -1.000000  1.000000 )  
               b(2) = (  1.000000  1.000000  1.000000 )  
               b(3) = ( -1.000000  1.000000 -1.000000 )  


     PseudoPot. # 1 for C  read from file:
     ./C.UPF
     MD5 check sum: ead9220225bd72a2f9a48cc2a638047d
     Pseudo is Norm-conserving + core correction, Zval =  4.0
     Generated using ONCVPSP code by D. R. Hamann
     Using radial grid of 1248 points,  4 beta functions with: 
                l(1) =   0
                l(2) =   0
                l(3) =   1
                l(4) =   1

     atomic species   valence    mass     pseudopotential
        C              4.00    12.01070     C ( 1.00)

     48 Sym. Ops., with inversion, found (24 have fractional translation)



   Cartesian axes

     site n.     atom                  positions (alat units)
         1           C   tau(   1) = (   0.0000000   0.0000000   0.0000000  )
         2           C   tau(   2) = (  -0.2500000   0.2500000   0.2500000  )

     number of k points=    10
                       cart. coord. in units 2pi/alat
        k(    1) = (  -0.1250000   0.1250000   0.1250000), wk =   0.0625000
        k(    2) = (  -0.3750000   0.3750000  -0.1250000), wk =   0.1875000
        k(    3) = (   0.3750000  -0.3750000   0.6250000), wk =   0.1875000
        k(    4) = (   0.1250000  -0.1250000   0.3750000), wk =   0.1875000
        k(    5) = (  -0.1250000   0.6250000   0.1250000), wk =   0.1875000
        k(    6) = (   0.6250000  -0.1250000   0.8750000), wk =   0.3750000
        k(    7) = (   0.3750000   0.1250000   0.6250000), wk =   0.3750000
        k(    8) = (  -0.1250000  -0.8750000   0.1250000), wk =   0.1875000
        k(    9) = (  -0.3750000   0.3750000   0.3750000), wk =   0.0625000
        k(   10) = (   0.3750000  -0.3750000   1.1250000), wk =   0.1875000

     Dense  grid:     7583 G-vectors     FFT dimensions: (  32,  32,  32)

     Estimated max dynamical RAM per process >       6.89 MB

     Initial potential from superposition of free atoms

     starting charge    7.99991, renormalised to    8.00000
     Starting wfcs are    8 randomized atomic wfcs

     total cpu time spent up to now is        0.2 secs

     Self-consistent Calculation

     iteration #  1     ecut=    75.00 Ry     beta= 0.70
     Davidson diagonalization with overlap
     ethr =  1.00E-02,  avg # of iterations =  2.0

     total cpu time spent up to now is        0.3 secs

     total energy              =     -24.05747329 Ry
     estimated scf accuracy    <       0.08284003 Ry

     iteration #  2     ecut=    75.00 Ry     beta= 0.70
     Davidson diagonalization with overlap
     ethr =  1.04E-03,  avg # of iterations =  1.5

     total cpu time spent up to now is        0.4 secs

     total energy              =     -24.06253272 Ry
     estimated scf accuracy    <       0.00323971 Ry

     iteration #  3     ecut=    75.00 Ry     beta= 0.70
     Davidson diagonalization with overlap
     ethr =  4.05E-05,  avg # of iterations =  3.0

     total cpu time spent up to now is        0.6 secs

     total energy              =     -24.06374380 Ry
     estimated scf accuracy    <       0.00007834 Ry

     iteration #  4     ecut=    75.00 Ry     beta= 0.70
     Davidson diagonalization with overlap
     ethr =  9.79E-07,  avg # of iterations =  4.9

     total cpu time spent up to now is        1.5 secs

     total energy              =     -24.06384776 Ry
     estimated scf accuracy    <       0.00001226 Ry

     iteration #  5     ecut=    75.00 Ry     beta= 0.70
     Davidson diagonalization with overlap
     ethr =  1.53E-07,  avg # of iterations =  2.6

     total cpu time spent up to now is        1.6 secs

     total energy              =     -24.06385095 Ry
     estimated scf accuracy    <       0.00000019 Ry

     iteration #  6     ecut=    75.00 Ry     beta= 0.70
     Davidson diagonalization with overlap
     ethr =  2.37E-09,  avg # of iterations =  4.6

     total cpu time spent up to now is        1.7 secs

     total energy              =     -24.06385119 Ry
     estimated scf accuracy    <       0.00000001 Ry

     iteration #  7     ecut=    75.00 Ry     beta= 0.70
     Davidson diagonalization with overlap
     ethr =  1.64E-10,  avg # of iterations =  3.1

     total cpu time spent up to now is        1.8 secs

     End of self-consistent calculation

          k =-0.1250 0.1250 0.1250 (   932 PWs)   bands (ev):

    -8.2055   9.2402  10.8883  10.8883

          k =-0.3750 0.3750-0.1250 (   939 PWs)   bands (ev):

    -6.1165   4.2584   7.4867   9.8018

          k = 0.3750-0.3750 0.6250 (   934 PWs)   bands (ev):

    -3.4218  -0.0778   7.6430   8.2893

          k = 0.1250-0.1250 0.3750 (   939 PWs)   bands (ev):

    -7.1487   6.7410   8.8991   9.5569

          k =-0.1250 0.6250 0.1250 (   940 PWs)   bands (ev):

    -5.0829   4.3675   6.6880   7.1066

          k = 0.6250-0.1250 0.8750 (   937 PWs)   bands (ev):

    -1.5297   0.9478   3.8592   5.7759

          k = 0.3750 0.1250 0.6250 (   936 PWs)   bands (ev):

    -4.1325   2.3012   5.7044   7.7860

          k =-0.1250-0.8750 0.1250 (   945 PWs)   bands (ev):

    -2.1422   1.3326   4.8709   6.1315

          k =-0.3750 0.3750 0.3750 (   938 PWs)   bands (ev):

    -5.1334   1.5972   9.1810   9.1810

          k = 0.3750-0.3750 1.1250 (   943 PWs)   bands (ev):

    -2.4960   0.7389   4.3761   7.6809

     highest occupied level (ev):    10.8883

!    total energy              =     -24.06385119 Ry
     estimated scf accuracy    <          1.9E-09 Ry

     The total energy is the sum of the following terms:
     one-electron contribution =       7.04723457 Ry
     hartree contribution      =       2.04777793 Ry
     xc contribution           =      -8.49827179 Ry
     ewald contribution        =     -24.66059190 Ry

     convergence has been achieved in   7 iterations

     Writing output data file ./tmp/diamond.save/

     init_run     :      0.49s CPU      0.10s WALL (       1 calls)
     electrons    :     12.17s CPU      1.68s WALL (       1 calls)

     Called by init_run:
     wfcinit      :      0.40s CPU      0.06s WALL (       1 calls)
     potinit      :      0.02s CPU      0.01s WALL (       1 calls)
     hinit0       :      0.06s CPU      0.03s WALL (       1 calls)

     Called by electrons:
     c_bands      :     11.34s CPU      1.50s WALL (       7 calls)
     sum_band     :      0.49s CPU      0.07s WALL (       7 calls)
     v_of_rho     :      0.30s CPU      0.10s WALL (       8 calls)
     mix_rho      :      0.05s CPU      0.01s WALL (       7 calls)

     Called by c_bands:
     init_us_2    :      0.10s CPU      0.02s WALL (     150 calls)
     cegterg      :     11.12s CPU      1.47s WALL (      70 calls)

     Called by *egterg:
     cdiaghg      :      0.07s CPU      0.01s WALL (     287 calls)
     h_psi        :     11.08s CPU      1.48s WALL (     297 calls)
     g_psi        :      0.05s CPU      0.00s WALL (     217 calls)

     Called by h_psi:
     h_psi:calbec :      5.85s CPU      0.75s WALL (     297 calls)
     vloc_psi     :      2.86s CPU      0.42s WALL (     297 calls)
     add_vuspsi   :      2.35s CPU      0.31s WALL (     297 calls)

     General routines
     calbec       :      5.85s CPU      0.74s WALL (     297 calls)
     fft          :      0.15s CPU      0.04s WALL (      80 calls)
     ffts         :      0.04s CPU      0.00s WALL (       7 calls)
     fftw         :      2.82s CPU      0.40s WALL (    2302 calls)

     Parallel routines

     PWSCF        :     12.82s CPU      1.86s WALL


   This run was terminated on:  11:11:26   5Jan2024            

=------------------------------------------------------------------------------=
   JOB DONE.
=------------------------------------------------------------------------------=
