
     Program PWSCF v.6.6 starts on  5Jan2024 at 15:13:58 

     This program is part of the open-source Quantum ESPRESSO suite
     for quantum simulation of materials; please cite
         "P. Giannozzi et al., J. Phys.:Condens. Matter 21 395502 (2009);
         "P. Giannozzi et al., J. Phys.:Condens. Matter 29 465901 (2017);
          URL http://www.quantum-espresso.org", 
     in publications or presentations arising from this work. More details at
     http://www.quantum-espresso.org/quote

     Parallel version (MPI), running on     1 processors

     MPI processes distributed on     1 nodes
     Fft bands division:     nmany     =       1
     Reading input from lattice-in_6.7.in

     Current dimensions of program PWSCF are:
     Max number of different atomic species (ntypx) = 10
     Max number of k-points (npk) =  40000
     Max angular momentum in pseudopotentials (lmaxx) =  3

     Subspace diagonalization in iterative solution of the eigenvalue problem:
     a serial algorithm will be used


     G-vector sticks info
     --------------------
     sticks:   dense  smooth     PW     G-vecs:    dense   smooth      PW
     Sum         463     463    151                 6615     6615    1243



     bravais-lattice index     =            2
     lattice parameter (alat)  =       6.7000  a.u.
     unit-cell volume          =      75.1908 (a.u.)^3
     number of atoms/cell      =            2
     number of atomic types    =            1
     number of electrons       =         8.00
     number of Kohn-Sham states=            4
     kinetic-energy cutoff     =      75.0000  Ry
     charge density cutoff     =     300.0000  Ry
     convergence threshold     =      1.0E-08
     mixing beta               =       0.7000
     number of iterations used =            8  plain     mixing
     Exchange-correlation= PBE
                           (   1   4   3   4   0   0   0)

     celldm(1)=   6.700000  celldm(2)=   0.000000  celldm(3)=   0.000000
     celldm(4)=   0.000000  celldm(5)=   0.000000  celldm(6)=   0.000000

     crystal axes: (cart. coord. in units of alat)
               a(1) = (  -0.500000   0.000000   0.500000 )  
               a(2) = (   0.000000   0.500000   0.500000 )  
               a(3) = (  -0.500000   0.500000   0.000000 )  

     reciprocal axes: (cart. coord. in units 2 pi/alat)
               b(1) = ( -1.000000 -1.000000  1.000000 )  
               b(2) = (  1.000000  1.000000  1.000000 )  
               b(3) = ( -1.000000  1.000000 -1.000000 )  


     PseudoPot. # 1 for C  read from file:
     ./C.UPF
     MD5 check sum: ead9220225bd72a2f9a48cc2a638047d
     Pseudo is Norm-conserving + core correction, Zval =  4.0
     Generated using ONCVPSP code by D. R. Hamann
     Using radial grid of 1248 points,  4 beta functions with: 
                l(1) =   0
                l(2) =   0
                l(3) =   1
                l(4) =   1

     atomic species   valence    mass     pseudopotential
        C              4.00    12.01070     C ( 1.00)

     48 Sym. Ops., with inversion, found (24 have fractional translation)



   Cartesian axes

     site n.     atom                  positions (alat units)
         1           C   tau(   1) = (   0.0000000   0.0000000   0.0000000  )
         2           C   tau(   2) = (  -0.2500000   0.2500000   0.2500000  )

     number of k points=    10
                       cart. coord. in units 2pi/alat
        k(    1) = (  -0.1250000   0.1250000   0.1250000), wk =   0.0625000
        k(    2) = (  -0.3750000   0.3750000  -0.1250000), wk =   0.1875000
        k(    3) = (   0.3750000  -0.3750000   0.6250000), wk =   0.1875000
        k(    4) = (   0.1250000  -0.1250000   0.3750000), wk =   0.1875000
        k(    5) = (  -0.1250000   0.6250000   0.1250000), wk =   0.1875000
        k(    6) = (   0.6250000  -0.1250000   0.8750000), wk =   0.3750000
        k(    7) = (   0.3750000   0.1250000   0.6250000), wk =   0.3750000
        k(    8) = (  -0.1250000  -0.8750000   0.1250000), wk =   0.1875000
        k(    9) = (  -0.3750000   0.3750000   0.3750000), wk =   0.0625000
        k(   10) = (   0.3750000  -0.3750000   1.1250000), wk =   0.1875000

     Dense  grid:     6615 G-vectors     FFT dimensions: (  32,  32,  32)

     Estimated max dynamical RAM per process >       6.36 MB

     Initial potential from superposition of free atoms

     starting charge    7.99991, renormalised to    8.00000
     Starting wfcs are    8 randomized atomic wfcs

     total cpu time spent up to now is        0.2 secs

     Self-consistent Calculation

     iteration #  1     ecut=    75.00 Ry     beta= 0.70
     Davidson diagonalization with overlap
     ethr =  1.00E-02,  avg # of iterations =  2.0

     total cpu time spent up to now is        0.4 secs

     total energy              =     -24.06662389 Ry
     estimated scf accuracy    <       0.11262815 Ry

     iteration #  2     ecut=    75.00 Ry     beta= 0.70
     Davidson diagonalization with overlap
     ethr =  1.41E-03,  avg # of iterations =  1.3

     total cpu time spent up to now is        0.7 secs

     total energy              =     -24.07325101 Ry
     estimated scf accuracy    <       0.00382244 Ry

     iteration #  3     ecut=    75.00 Ry     beta= 0.70
     Davidson diagonalization with overlap
     ethr =  4.78E-05,  avg # of iterations =  2.8

     total cpu time spent up to now is        1.1 secs

     total energy              =     -24.07476873 Ry
     estimated scf accuracy    <       0.00008805 Ry

     iteration #  4     ecut=    75.00 Ry     beta= 0.70
     Davidson diagonalization with overlap
     ethr =  1.10E-06,  avg # of iterations =  5.3

     total cpu time spent up to now is        1.3 secs

     total energy              =     -24.07487287 Ry
     estimated scf accuracy    <       0.00001395 Ry

     iteration #  5     ecut=    75.00 Ry     beta= 0.70
     Davidson diagonalization with overlap
     ethr =  1.74E-07,  avg # of iterations =  2.4

     total cpu time spent up to now is        1.4 secs

     total energy              =     -24.07487629 Ry
     estimated scf accuracy    <       0.00000082 Ry

     iteration #  6     ecut=    75.00 Ry     beta= 0.70
     Davidson diagonalization with overlap
     ethr =  1.02E-08,  avg # of iterations =  3.0

     total cpu time spent up to now is        1.6 secs

     total energy              =     -24.07487658 Ry
     estimated scf accuracy    <       0.00000002 Ry

     iteration #  7     ecut=    75.00 Ry     beta= 0.70
     Davidson diagonalization with overlap
     ethr =  2.76E-10,  avg # of iterations =  4.9

     total cpu time spent up to now is        1.7 secs

     End of self-consistent calculation

          k =-0.1250 0.1250 0.1250 (   833 PWs)   bands (ev):

    -7.6098  11.2366  13.0189  13.0189

          k =-0.3750 0.3750-0.1250 (   825 PWs)   bands (ev):

    -5.3163   5.8147   9.2462  11.8075

          k = 0.3750-0.3750 0.6250 (   825 PWs)   bands (ev):

    -2.2373   0.9422   9.4685  10.0876

          k = 0.1250-0.1250 0.3750 (   836 PWs)   bands (ev):

    -6.4530   8.5267  10.7494  11.6297

          k =-0.1250 0.6250 0.1250 (   829 PWs)   bands (ev):

    -4.1850   6.0814   8.3794   8.7337

          k = 0.6250-0.1250 0.8750 (   824 PWs)   bands (ev):

    -0.1761   2.3879   5.1256   7.2102

          k = 0.3750 0.1250 0.6250 (   819 PWs)   bands (ev):

    -3.1162   3.7076   7.3081   9.5244

          k =-0.1250-0.8750 0.1250 (   813 PWs)   bands (ev):

    -0.9387   2.9082   6.1988   7.6431

          k =-0.3750 0.3750 0.3750 (   826 PWs)   bands (ev):

    -4.2155   2.8614  11.1042  11.1042

          k = 0.3750-0.3750 1.1250 (   824 PWs)   bands (ev):

    -1.2246   1.9326   5.8210   9.3952

     highest occupied level (ev):    13.0189

!    total energy              =     -24.07487660 Ry
     estimated scf accuracy    <          3.5E-09 Ry

     The total energy is the sum of the following terms:
     one-electron contribution =       8.45072262 Ry
     hartree contribution      =       1.91352418 Ry
     xc contribution           =      -8.71113273 Ry
     ewald contribution        =     -25.72799066 Ry

     convergence has been achieved in   7 iterations

     Writing output data file ./tmp/diamond.save/

     init_run     :      0.69s CPU      0.14s WALL (       1 calls)
     electrons    :     10.90s CPU      1.47s WALL (       1 calls)

     Called by init_run:
     wfcinit      :      0.61s CPU      0.09s WALL (       1 calls)
     potinit      :      0.03s CPU      0.02s WALL (       1 calls)
     hinit0       :      0.05s CPU      0.03s WALL (       1 calls)

     Called by electrons:
     c_bands      :     10.18s CPU      1.32s WALL (       7 calls)
     sum_band     :      0.50s CPU      0.06s WALL (       7 calls)
     v_of_rho     :      0.22s CPU      0.09s WALL (       8 calls)
     mix_rho      :      0.01s CPU      0.01s WALL (       7 calls)

     Called by c_bands:
     init_us_2    :      0.12s CPU      0.01s WALL (     150 calls)
     cegterg      :     10.00s CPU      1.30s WALL (      70 calls)

     Called by *egterg:
     cdiaghg      :      0.09s CPU      0.01s WALL (     287 calls)
     h_psi        :     10.10s CPU      1.33s WALL (     297 calls)
     g_psi        :      0.03s CPU      0.00s WALL (     217 calls)

     Called by h_psi:
     h_psi:calbec :      3.90s CPU      0.51s WALL (     297 calls)
     vloc_psi     :      3.32s CPU      0.44s WALL (     297 calls)
     add_vuspsi   :      2.84s CPU      0.38s WALL (     297 calls)

     General routines
     calbec       :      3.90s CPU      0.51s WALL (     297 calls)
     fft          :      0.10s CPU      0.04s WALL (      80 calls)
     ffts         :      0.00s CPU      0.00s WALL (       7 calls)
     fftw         :      3.12s CPU      0.41s WALL (    2330 calls)

     Parallel routines

     PWSCF        :     11.73s CPU      1.69s WALL


   This run was terminated on:  15:14: 0   5Jan2024            

=------------------------------------------------------------------------------=
   JOB DONE.
=------------------------------------------------------------------------------=
