
     Program PWSCF v.6.6 starts on 19Dec2023 at 23:38:15 

     This program is part of the open-source Quantum ESPRESSO suite
     for quantum simulation of materials; please cite
         "P. Giannozzi et al., J. Phys.:Condens. Matter 21 395502 (2009);
         "P. Giannozzi et al., J. Phys.:Condens. Matter 29 465901 (2017);
          URL http://www.quantum-espresso.org", 
     in publications or presentations arising from this work. More details at
     http://www.quantum-espresso.org/quote

     Parallel version (MPI), running on     1 processors

     MPI processes distributed on     1 nodes
     Fft bands division:     nmany     =       1
     Reading input from lattice-in_6.83.in

     Current dimensions of program PWSCF are:
     Max number of different atomic species (ntypx) = 10
     Max number of k-points (npk) =  40000
     Max angular momentum in pseudopotentials (lmaxx) =  3

     Subspace diagonalization in iterative solution of the eigenvalue problem:
     a serial algorithm will be used


     G-vector sticks info
     --------------------
     sticks:   dense  smooth     PW     G-vecs:    dense   smooth      PW
     Sum         475     475    151                 6879     6879    1243



     bravais-lattice index     =            2
     lattice parameter (alat)  =       6.8300  a.u.
     unit-cell volume          =      79.6530 (a.u.)^3
     number of atoms/cell      =            2
     number of atomic types    =            1
     number of electrons       =         8.00
     number of Kohn-Sham states=            4
     kinetic-energy cutoff     =      75.0000  Ry
     charge density cutoff     =     300.0000  Ry
     convergence threshold     =      1.0E-08
     mixing beta               =       0.7000
     number of iterations used =            8  plain     mixing
     Exchange-correlation= PBE
                           (   1   4   3   4   0   0   0)

     celldm(1)=   6.830000  celldm(2)=   0.000000  celldm(3)=   0.000000
     celldm(4)=   0.000000  celldm(5)=   0.000000  celldm(6)=   0.000000

     crystal axes: (cart. coord. in units of alat)
               a(1) = (  -0.500000   0.000000   0.500000 )  
               a(2) = (   0.000000   0.500000   0.500000 )  
               a(3) = (  -0.500000   0.500000   0.000000 )  

     reciprocal axes: (cart. coord. in units 2 pi/alat)
               b(1) = ( -1.000000 -1.000000  1.000000 )  
               b(2) = (  1.000000  1.000000  1.000000 )  
               b(3) = ( -1.000000  1.000000 -1.000000 )  


     PseudoPot. # 1 for C  read from file:
     ./C.UPF
     MD5 check sum: ead9220225bd72a2f9a48cc2a638047d
     Pseudo is Norm-conserving + core correction, Zval =  4.0
     Generated using ONCVPSP code by D. R. Hamann
     Using radial grid of 1248 points,  4 beta functions with: 
                l(1) =   0
                l(2) =   0
                l(3) =   1
                l(4) =   1

     atomic species   valence    mass     pseudopotential
        C              4.00    12.01070     C ( 1.00)

     48 Sym. Ops., with inversion, found (24 have fractional translation)



   Cartesian axes

     site n.     atom                  positions (alat units)
         1           C   tau(   1) = (   0.0000000   0.0000000   0.0000000  )
         2           C   tau(   2) = (  -0.2500000   0.2500000   0.2500000  )

     number of k points=    10
                       cart. coord. in units 2pi/alat
        k(    1) = (  -0.1250000   0.1250000   0.1250000), wk =   0.0625000
        k(    2) = (  -0.3750000   0.3750000  -0.1250000), wk =   0.1875000
        k(    3) = (   0.3750000  -0.3750000   0.6250000), wk =   0.1875000
        k(    4) = (   0.1250000  -0.1250000   0.3750000), wk =   0.1875000
        k(    5) = (  -0.1250000   0.6250000   0.1250000), wk =   0.1875000
        k(    6) = (   0.6250000  -0.1250000   0.8750000), wk =   0.3750000
        k(    7) = (   0.3750000   0.1250000   0.6250000), wk =   0.3750000
        k(    8) = (  -0.1250000  -0.8750000   0.1250000), wk =   0.1875000
        k(    9) = (  -0.3750000   0.3750000   0.3750000), wk =   0.0625000
        k(   10) = (   0.3750000  -0.3750000   1.1250000), wk =   0.1875000

     Dense  grid:     6879 G-vectors     FFT dimensions: (  32,  32,  32)

     Estimated max dynamical RAM per process >       6.53 MB

     Initial potential from superposition of free atoms

     starting charge    7.99991, renormalised to    8.00000
     Starting wfcs are    8 randomized atomic wfcs

     total cpu time spent up to now is        0.2 secs

     Self-consistent Calculation

     iteration #  1     ecut=    75.00 Ry     beta= 0.70
     Davidson diagonalization with overlap
     ethr =  1.00E-02,  avg # of iterations =  2.0

     total cpu time spent up to now is        0.3 secs

     total energy              =     -24.06668715 Ry
     estimated scf accuracy    <       0.09834038 Ry

     iteration #  2     ecut=    75.00 Ry     beta= 0.70
     Davidson diagonalization with overlap
     ethr =  1.23E-03,  avg # of iterations =  1.3

     total cpu time spent up to now is        0.3 secs

     total energy              =     -24.07255043 Ry
     estimated scf accuracy    <       0.00354016 Ry

     iteration #  3     ecut=    75.00 Ry     beta= 0.70
     Davidson diagonalization with overlap
     ethr =  4.43E-05,  avg # of iterations =  2.8

     total cpu time spent up to now is        0.4 secs

     total energy              =     -24.07399174 Ry
     estimated scf accuracy    <       0.00008111 Ry

     iteration #  4     ecut=    75.00 Ry     beta= 0.70
     Davidson diagonalization with overlap
     ethr =  1.01E-06,  avg # of iterations =  5.2

     total cpu time spent up to now is        0.5 secs

     total energy              =     -24.07410597 Ry
     estimated scf accuracy    <       0.00001140 Ry

     iteration #  5     ecut=    75.00 Ry     beta= 0.70
     Davidson diagonalization with overlap
     ethr =  1.43E-07,  avg # of iterations =  2.7

     total cpu time spent up to now is        0.6 secs

     total energy              =     -24.07410966 Ry
     estimated scf accuracy    <       0.00000089 Ry

     iteration #  6     ecut=    75.00 Ry     beta= 0.70
     Davidson diagonalization with overlap
     ethr =  1.11E-08,  avg # of iterations =  3.5

     total cpu time spent up to now is        0.8 secs

     End of self-consistent calculation

          k =-0.1250 0.1250 0.1250 (   893 PWs)   bands (ev):

    -7.8893  10.3076  12.0257  12.0257

          k =-0.3750 0.3750-0.1250 (   877 PWs)   bands (ev):

    -5.6895   5.0919   8.4257  10.8723

          k = 0.3750-0.3750 0.6250 (   869 PWs)   bands (ev):

    -2.7887   0.4676   8.6173   9.2494

          k = 0.1250-0.1250 0.3750 (   873 PWs)   bands (ev):

    -6.7783   7.6985   9.8875  10.6630

          k =-0.1250 0.6250 0.1250 (   868 PWs)   bands (ev):

    -4.6032   5.2890   7.5872   7.9756

          k = 0.6250-0.1250 0.8750 (   873 PWs)   bands (ev):

    -0.8059   1.7222   4.5306   6.5418

          k = 0.3750 0.1250 0.6250 (   873 PWs)   bands (ev):

    -3.5887   3.0554   6.5584   8.7138

          k =-0.1250-0.8750 0.1250 (   873 PWs)   bands (ev):

    -1.4979   2.1757   5.5798   6.9388

          k =-0.3750 0.3750 0.3750 (   869 PWs)   bands (ev):

    -4.6426   2.2722  10.2078  10.2078

          k = 0.3750-0.3750 1.1250 (   870 PWs)   bands (ev):

    -1.8163   1.3810   5.1436   8.5964

     highest occupied level (ev):    12.0257

!    total energy              =     -24.07410999 Ry
     estimated scf accuracy    <          8.3E-09 Ry

     The total energy is the sum of the following terms:
     one-electron contribution =       7.80359188 Ry
     hartree contribution      =       1.97319036 Ry
     xc contribution           =      -8.61259978 Ry
     ewald contribution        =     -25.23829245 Ry

     convergence has been achieved in   6 iterations

     Writing output data file ./tmp/diamond.save/

     init_run     :      0.45s CPU      0.11s WALL (       1 calls)
     electrons    :      5.20s CPU      0.62s WALL (       1 calls)

     Called by init_run:
     wfcinit      :      0.34s CPU      0.05s WALL (       1 calls)
     potinit      :      0.03s CPU      0.01s WALL (       1 calls)
     hinit0       :      0.08s CPU      0.04s WALL (       1 calls)

     Called by electrons:
     c_bands      :      4.40s CPU      0.46s WALL (       6 calls)
     sum_band     :      0.64s CPU      0.07s WALL (       6 calls)
     v_of_rho     :      0.15s CPU      0.08s WALL (       7 calls)
     mix_rho      :      0.01s CPU      0.01s WALL (       6 calls)

     Called by c_bands:
     init_us_2    :      0.15s CPU      0.01s WALL (     130 calls)
     cegterg      :      4.17s CPU      0.44s WALL (      60 calls)

     Called by *egterg:
     cdiaghg      :      0.06s CPU      0.01s WALL (     235 calls)
     h_psi        :      4.19s CPU      0.46s WALL (     245 calls)
     g_psi        :      0.00s CPU      0.00s WALL (     175 calls)

     Called by h_psi:
     h_psi:calbec :      0.65s CPU      0.06s WALL (     245 calls)
     vloc_psi     :      3.21s CPU      0.35s WALL (     245 calls)
     add_vuspsi   :      0.31s CPU      0.04s WALL (     245 calls)

     General routines
     calbec       :      0.64s CPU      0.06s WALL (     245 calls)
     fft          :      0.07s CPU      0.04s WALL (      70 calls)
     ffts         :      0.01s CPU      0.00s WALL (       6 calls)
     fftw         :      3.16s CPU      0.34s WALL (    1984 calls)

     Parallel routines

     PWSCF        :      5.76s CPU      0.79s WALL


   This run was terminated on:  23:38:16  19Dec2023            

=------------------------------------------------------------------------------=
   JOB DONE.
=------------------------------------------------------------------------------=
