
     Program PWSCF v.6.6 starts on 19Dec2023 at 23:37:44 

     This program is part of the open-source Quantum ESPRESSO suite
     for quantum simulation of materials; please cite
         "P. Giannozzi et al., J. Phys.:Condens. Matter 21 395502 (2009);
         "P. Giannozzi et al., J. Phys.:Condens. Matter 29 465901 (2017);
          URL http://www.quantum-espresso.org", 
     in publications or presentations arising from this work. More details at
     http://www.quantum-espresso.org/quote

     Parallel version (MPI), running on     1 processors

     MPI processes distributed on     1 nodes
     Fft bands division:     nmany     =       1
     Reading input from lattice-in_6.47.in

     Current dimensions of program PWSCF are:
     Max number of different atomic species (ntypx) = 10
     Max number of k-points (npk) =  40000
     Max angular momentum in pseudopotentials (lmaxx) =  3

     Subspace diagonalization in iterative solution of the eigenvalue problem:
     a serial algorithm will be used


     G-vector sticks info
     --------------------
     sticks:   dense  smooth     PW     G-vecs:    dense   smooth      PW
     Sum         433     433    139                 5961     5961    1067



     bravais-lattice index     =            2
     lattice parameter (alat)  =       6.4700  a.u.
     unit-cell volume          =      67.7100 (a.u.)^3
     number of atoms/cell      =            2
     number of atomic types    =            1
     number of electrons       =         8.00
     number of Kohn-Sham states=            4
     kinetic-energy cutoff     =      75.0000  Ry
     charge density cutoff     =     300.0000  Ry
     convergence threshold     =      1.0E-08
     mixing beta               =       0.7000
     number of iterations used =            8  plain     mixing
     Exchange-correlation= PBE
                           (   1   4   3   4   0   0   0)

     celldm(1)=   6.470000  celldm(2)=   0.000000  celldm(3)=   0.000000
     celldm(4)=   0.000000  celldm(5)=   0.000000  celldm(6)=   0.000000

     crystal axes: (cart. coord. in units of alat)
               a(1) = (  -0.500000   0.000000   0.500000 )  
               a(2) = (   0.000000   0.500000   0.500000 )  
               a(3) = (  -0.500000   0.500000   0.000000 )  

     reciprocal axes: (cart. coord. in units 2 pi/alat)
               b(1) = ( -1.000000 -1.000000  1.000000 )  
               b(2) = (  1.000000  1.000000  1.000000 )  
               b(3) = ( -1.000000  1.000000 -1.000000 )  


     PseudoPot. # 1 for C  read from file:
     ./C.UPF
     MD5 check sum: ead9220225bd72a2f9a48cc2a638047d
     Pseudo is Norm-conserving + core correction, Zval =  4.0
     Generated using ONCVPSP code by D. R. Hamann
     Using radial grid of 1248 points,  4 beta functions with: 
                l(1) =   0
                l(2) =   0
                l(3) =   1
                l(4) =   1

     atomic species   valence    mass     pseudopotential
        C              4.00    12.01070     C ( 1.00)

     48 Sym. Ops., with inversion, found (24 have fractional translation)



   Cartesian axes

     site n.     atom                  positions (alat units)
         1           C   tau(   1) = (   0.0000000   0.0000000   0.0000000  )
         2           C   tau(   2) = (  -0.2500000   0.2500000   0.2500000  )

     number of k points=    10
                       cart. coord. in units 2pi/alat
        k(    1) = (  -0.1250000   0.1250000   0.1250000), wk =   0.0625000
        k(    2) = (  -0.3750000   0.3750000  -0.1250000), wk =   0.1875000
        k(    3) = (   0.3750000  -0.3750000   0.6250000), wk =   0.1875000
        k(    4) = (   0.1250000  -0.1250000   0.3750000), wk =   0.1875000
        k(    5) = (  -0.1250000   0.6250000   0.1250000), wk =   0.1875000
        k(    6) = (   0.6250000  -0.1250000   0.8750000), wk =   0.3750000
        k(    7) = (   0.3750000   0.1250000   0.6250000), wk =   0.3750000
        k(    8) = (  -0.1250000  -0.8750000   0.1250000), wk =   0.1875000
        k(    9) = (  -0.3750000   0.3750000   0.3750000), wk =   0.0625000
        k(   10) = (   0.3750000  -0.3750000   1.1250000), wk =   0.1875000

     Dense  grid:     5961 G-vectors     FFT dimensions: (  32,  32,  32)

     Estimated max dynamical RAM per process >       5.99 MB

     Initial potential from superposition of free atoms

     starting charge    7.99991, renormalised to    8.00000
     Starting wfcs are    8 randomized atomic wfcs

     total cpu time spent up to now is        0.2 secs

     Self-consistent Calculation

     iteration #  1     ecut=    75.00 Ry     beta= 0.70
     Davidson diagonalization with overlap
     ethr =  1.00E-02,  avg # of iterations =  2.0

     total cpu time spent up to now is        0.3 secs

     total energy              =     -24.04553254 Ry
     estimated scf accuracy    <       0.14206772 Ry

     iteration #  2     ecut=    75.00 Ry     beta= 0.70
     Davidson diagonalization with overlap
     ethr =  1.78E-03,  avg # of iterations =  1.2

     total cpu time spent up to now is        0.4 secs

     total energy              =     -24.05371065 Ry
     estimated scf accuracy    <       0.00443338 Ry

     iteration #  3     ecut=    75.00 Ry     beta= 0.70
     Davidson diagonalization with overlap
     ethr =  5.54E-05,  avg # of iterations =  3.0

     total cpu time spent up to now is        0.4 secs

     total energy              =     -24.05557478 Ry
     estimated scf accuracy    <       0.00009675 Ry

     iteration #  4     ecut=    75.00 Ry     beta= 0.70
     Davidson diagonalization with overlap
     ethr =  1.21E-06,  avg # of iterations =  4.7

     total cpu time spent up to now is        0.5 secs

     total energy              =     -24.05567235 Ry
     estimated scf accuracy    <       0.00001564 Ry

     iteration #  5     ecut=    75.00 Ry     beta= 0.70
     Davidson diagonalization with overlap
     ethr =  1.96E-07,  avg # of iterations =  2.3

     total cpu time spent up to now is        0.6 secs

     total energy              =     -24.05567625 Ry
     estimated scf accuracy    <       0.00000123 Ry

     iteration #  6     ecut=    75.00 Ry     beta= 0.70
     Davidson diagonalization with overlap
     ethr =  1.53E-08,  avg # of iterations =  2.9

     total cpu time spent up to now is        0.7 secs

     total energy              =     -24.05567660 Ry
     estimated scf accuracy    <       0.00000002 Ry

     iteration #  7     ecut=    75.00 Ry     beta= 0.70
     Davidson diagonalization with overlap
     ethr =  3.04E-10,  avg # of iterations =  5.1

     total cpu time spent up to now is        0.8 secs

     End of self-consistent calculation

          k =-0.1250 0.1250 0.1250 (   740 PWs)   bands (ev):

    -7.0580  13.0286  14.9448  14.9448

          k =-0.3750 0.3750-0.1250 (   747 PWs)   bands (ev):

    -4.5900   7.2088  10.8397  13.6221

          k = 0.3750-0.3750 0.6250 (   744 PWs)   bands (ev):

    -1.1737   1.8665  11.1206  11.7131

          k = 0.1250-0.1250 0.3750 (   745 PWs)   bands (ev):

    -5.8156  10.1203  12.4200  13.5090

          k =-0.1250 0.6250 0.1250 (   741 PWs)   bands (ev):

    -3.3735   7.5916   9.9347  10.2033

          k = 0.6250-0.1250 0.8750 (   738 PWs)   bands (ev):

     1.0394   3.6532   6.3051   8.5066

          k = 0.3750 0.1250 0.6250 (   743 PWs)   bands (ev):

    -2.2047   4.9613   8.7706  11.0992

          k =-0.1250-0.8750 0.1250 (   743 PWs)   bands (ev):

     0.1387   4.3216   7.4005   9.0087

          k =-0.3750 0.3750 0.3750 (   751 PWs)   bands (ev):

    -3.3901   4.0084  12.8438  12.8438

          k = 0.3750-0.3750 1.1250 (   737 PWs)   bands (ev):

    -0.0831   2.9878   7.1515  10.9442

     highest occupied level (ev):    14.9448

!    total energy              =     -24.05567664 Ry
     estimated scf accuracy    <          4.6E-09 Ry

     The total energy is the sum of the following terms:
     one-electron contribution =       9.67592329 Ry
     hartree contribution      =       1.80959778 Ry
     xc contribution           =      -8.89861079 Ry
     ewald contribution        =     -26.64258693 Ry

     convergence has been achieved in   7 iterations

     Writing output data file ./tmp/diamond.save/

     init_run     :      0.56s CPU      0.11s WALL (       1 calls)
     electrons    :      5.95s CPU      0.64s WALL (       1 calls)

     Called by init_run:
     wfcinit      :      0.47s CPU      0.06s WALL (       1 calls)
     potinit      :      0.02s CPU      0.01s WALL (       1 calls)
     hinit0       :      0.07s CPU      0.04s WALL (       1 calls)

     Called by electrons:
     c_bands      :      4.93s CPU      0.48s WALL (       7 calls)
     sum_band     :      0.63s CPU      0.08s WALL (       7 calls)
     v_of_rho     :      0.33s CPU      0.08s WALL (       8 calls)
     mix_rho      :      0.04s CPU      0.01s WALL (       7 calls)

     Called by c_bands:
     init_us_2    :      0.12s CPU      0.01s WALL (     150 calls)
     cegterg      :      4.66s CPU      0.46s WALL (      70 calls)

     Called by *egterg:
     cdiaghg      :      0.03s CPU      0.01s WALL (     282 calls)
     h_psi        :      4.87s CPU      0.49s WALL (     292 calls)
     g_psi        :      0.02s CPU      0.00s WALL (     212 calls)

     Called by h_psi:
     h_psi:calbec :      0.55s CPU      0.05s WALL (     292 calls)
     vloc_psi     :      3.99s CPU      0.40s WALL (     292 calls)
     add_vuspsi   :      0.30s CPU      0.04s WALL (     292 calls)

     General routines
     calbec       :      0.55s CPU      0.05s WALL (     292 calls)
     fft          :      0.09s CPU      0.04s WALL (      80 calls)
     ffts         :      0.03s CPU      0.00s WALL (       7 calls)
     fftw         :      3.73s CPU      0.38s WALL (    2308 calls)

     Parallel routines

     PWSCF        :      6.64s CPU      0.83s WALL


   This run was terminated on:  23:37:44  19Dec2023            

=------------------------------------------------------------------------------=
   JOB DONE.
=------------------------------------------------------------------------------=
