
     Program PWSCF v.6.6 starts on 19Dec2023 at 23:37:47 

     This program is part of the open-source Quantum ESPRESSO suite
     for quantum simulation of materials; please cite
         "P. Giannozzi et al., J. Phys.:Condens. Matter 21 395502 (2009);
         "P. Giannozzi et al., J. Phys.:Condens. Matter 29 465901 (2017);
          URL http://www.quantum-espresso.org", 
     in publications or presentations arising from this work. More details at
     http://www.quantum-espresso.org/quote

     Parallel version (MPI), running on     1 processors

     MPI processes distributed on     1 nodes
     Fft bands division:     nmany     =       1
     Reading input from lattice-in_6.51.in

     Current dimensions of program PWSCF are:
     Max number of different atomic species (ntypx) = 10
     Max number of k-points (npk) =  40000
     Max angular momentum in pseudopotentials (lmaxx) =  3

     Subspace diagonalization in iterative solution of the eigenvalue problem:
     a serial algorithm will be used


     G-vector sticks info
     --------------------
     sticks:   dense  smooth     PW     G-vecs:    dense   smooth      PW
     Sum         433     433    151                 5985     5985    1139



     bravais-lattice index     =            2
     lattice parameter (alat)  =       6.5100  a.u.
     unit-cell volume          =      68.9736 (a.u.)^3
     number of atoms/cell      =            2
     number of atomic types    =            1
     number of electrons       =         8.00
     number of Kohn-Sham states=            4
     kinetic-energy cutoff     =      75.0000  Ry
     charge density cutoff     =     300.0000  Ry
     convergence threshold     =      1.0E-08
     mixing beta               =       0.7000
     number of iterations used =            8  plain     mixing
     Exchange-correlation= PBE
                           (   1   4   3   4   0   0   0)

     celldm(1)=   6.510000  celldm(2)=   0.000000  celldm(3)=   0.000000
     celldm(4)=   0.000000  celldm(5)=   0.000000  celldm(6)=   0.000000

     crystal axes: (cart. coord. in units of alat)
               a(1) = (  -0.500000   0.000000   0.500000 )  
               a(2) = (   0.000000   0.500000   0.500000 )  
               a(3) = (  -0.500000   0.500000   0.000000 )  

     reciprocal axes: (cart. coord. in units 2 pi/alat)
               b(1) = ( -1.000000 -1.000000  1.000000 )  
               b(2) = (  1.000000  1.000000  1.000000 )  
               b(3) = ( -1.000000  1.000000 -1.000000 )  


     PseudoPot. # 1 for C  read from file:
     ./C.UPF
     MD5 check sum: ead9220225bd72a2f9a48cc2a638047d
     Pseudo is Norm-conserving + core correction, Zval =  4.0
     Generated using ONCVPSP code by D. R. Hamann
     Using radial grid of 1248 points,  4 beta functions with: 
                l(1) =   0
                l(2) =   0
                l(3) =   1
                l(4) =   1

     atomic species   valence    mass     pseudopotential
        C              4.00    12.01070     C ( 1.00)

     48 Sym. Ops., with inversion, found (24 have fractional translation)



   Cartesian axes

     site n.     atom                  positions (alat units)
         1           C   tau(   1) = (   0.0000000   0.0000000   0.0000000  )
         2           C   tau(   2) = (  -0.2500000   0.2500000   0.2500000  )

     number of k points=    10
                       cart. coord. in units 2pi/alat
        k(    1) = (  -0.1250000   0.1250000   0.1250000), wk =   0.0625000
        k(    2) = (  -0.3750000   0.3750000  -0.1250000), wk =   0.1875000
        k(    3) = (   0.3750000  -0.3750000   0.6250000), wk =   0.1875000
        k(    4) = (   0.1250000  -0.1250000   0.3750000), wk =   0.1875000
        k(    5) = (  -0.1250000   0.6250000   0.1250000), wk =   0.1875000
        k(    6) = (   0.6250000  -0.1250000   0.8750000), wk =   0.3750000
        k(    7) = (   0.3750000   0.1250000   0.6250000), wk =   0.3750000
        k(    8) = (  -0.1250000  -0.8750000   0.1250000), wk =   0.1875000
        k(    9) = (  -0.3750000   0.3750000   0.3750000), wk =   0.0625000
        k(   10) = (   0.3750000  -0.3750000   1.1250000), wk =   0.1875000

     Dense  grid:     5985 G-vectors     FFT dimensions: (  32,  32,  32)

     Estimated max dynamical RAM per process >       6.02 MB

     Initial potential from superposition of free atoms

     starting charge    7.99991, renormalised to    8.00000
     Starting wfcs are    8 randomized atomic wfcs

     total cpu time spent up to now is        0.2 secs

     Self-consistent Calculation

     iteration #  1     ecut=    75.00 Ry     beta= 0.70
     Davidson diagonalization with overlap
     ethr =  1.00E-02,  avg # of iterations =  2.0

     total cpu time spent up to now is        0.3 secs

     total energy              =     -24.05122625 Ry
     estimated scf accuracy    <       0.13678085 Ry

     iteration #  2     ecut=    75.00 Ry     beta= 0.70
     Davidson diagonalization with overlap
     ethr =  1.71E-03,  avg # of iterations =  1.3

     total cpu time spent up to now is        0.4 secs

     total energy              =     -24.05930795 Ry
     estimated scf accuracy    <       0.00426478 Ry

     iteration #  3     ecut=    75.00 Ry     beta= 0.70
     Davidson diagonalization with overlap
     ethr =  5.33E-05,  avg # of iterations =  3.0

     total cpu time spent up to now is        0.5 secs

     total energy              =     -24.06104991 Ry
     estimated scf accuracy    <       0.00009504 Ry

     iteration #  4     ecut=    75.00 Ry     beta= 0.70
     Davidson diagonalization with overlap
     ethr =  1.19E-06,  avg # of iterations =  5.0

     total cpu time spent up to now is        0.6 secs

     total energy              =     -24.06114723 Ry
     estimated scf accuracy    <       0.00001562 Ry

     iteration #  5     ecut=    75.00 Ry     beta= 0.70
     Davidson diagonalization with overlap
     ethr =  1.95E-07,  avg # of iterations =  2.1

     total cpu time spent up to now is        0.7 secs

     total energy              =     -24.06115057 Ry
     estimated scf accuracy    <       0.00000081 Ry

     iteration #  6     ecut=    75.00 Ry     beta= 0.70
     Davidson diagonalization with overlap
     ethr =  1.02E-08,  avg # of iterations =  3.5

     total cpu time spent up to now is        0.8 secs

     End of self-consistent calculation

          k =-0.1250 0.1250 0.1250 (   746 PWs)   bands (ev):

    -7.1594  12.7026  14.5945  14.5945

          k =-0.3750 0.3750-0.1250 (   757 PWs)   bands (ev):

    -4.7225   6.9554  10.5493  13.2917

          k = 0.3750-0.3750 0.6250 (   759 PWs)   bands (ev):

    -1.3667   1.6974  10.8196  11.4170

          k = 0.1250-0.1250 0.3750 (   765 PWs)   bands (ev):

    -5.9323   9.8311  12.1155  13.1660

          k =-0.1250 0.6250 0.1250 (   760 PWs)   bands (ev):

    -3.5214   7.3187   9.6496   9.9356

          k = 0.6250-0.1250 0.8750 (   751 PWs)   bands (ev):

     0.8187   3.4251   6.0877   8.2704

          k = 0.3750 0.1250 0.6250 (   756 PWs)   bands (ev):

    -2.3703   4.7336   8.5036  10.8120

          k =-0.1250-0.8750 0.1250 (   757 PWs)   bands (ev):

    -0.0569   4.0647   7.1815   8.7598

          k =-0.3750 0.3750 0.3750 (   763 PWs)   bands (ev):

    -3.5401   3.7989  12.5265  12.5265

          k = 0.3750-0.3750 1.1250 (   757 PWs)   bands (ev):

    -0.2903   2.7965   6.9076  10.6619

     highest occupied level (ev):    14.5945

!    total energy              =     -24.06115086 Ry
     estimated scf accuracy    <          9.1E-09 Ry

     The total energy is the sum of the following terms:
     one-electron contribution =       9.45498829 Ry
     hartree contribution      =       1.82745548 Ry
     xc contribution           =      -8.86471023 Ry
     ewald contribution        =     -26.47888440 Ry

     convergence has been achieved in   6 iterations

     Writing output data file ./tmp/diamond.save/

     init_run     :      0.76s CPU      0.14s WALL (       1 calls)
     electrons    :      5.29s CPU      0.58s WALL (       1 calls)

     Called by init_run:
     wfcinit      :      0.65s CPU      0.09s WALL (       1 calls)
     potinit      :      0.03s CPU      0.01s WALL (       1 calls)
     hinit0       :      0.07s CPU      0.04s WALL (       1 calls)

     Called by electrons:
     c_bands      :      4.22s CPU      0.44s WALL (       6 calls)
     sum_band     :      0.55s CPU      0.06s WALL (       6 calls)
     v_of_rho     :      0.46s CPU      0.08s WALL (       7 calls)
     mix_rho      :      0.08s CPU      0.00s WALL (       6 calls)

     Called by c_bands:
     init_us_2    :      0.09s CPU      0.01s WALL (     130 calls)
     cegterg      :      4.09s CPU      0.42s WALL (      60 calls)

     Called by *egterg:
     cdiaghg      :      0.04s CPU      0.01s WALL (     229 calls)
     h_psi        :      4.50s CPU      0.48s WALL (     239 calls)
     g_psi        :      0.00s CPU      0.00s WALL (     169 calls)

     Called by h_psi:
     h_psi:calbec :      0.56s CPU      0.04s WALL (     239 calls)
     vloc_psi     :      3.25s CPU      0.35s WALL (     239 calls)
     add_vuspsi   :      0.64s CPU      0.08s WALL (     239 calls)

     General routines
     calbec       :      0.54s CPU      0.04s WALL (     239 calls)
     fft          :      0.23s CPU      0.04s WALL (      70 calls)
     ffts         :      0.04s CPU      0.00s WALL (       6 calls)
     fftw         :      3.08s CPU      0.33s WALL (    1922 calls)

     Parallel routines

     PWSCF        :      6.19s CPU      0.80s WALL


   This run was terminated on:  23:37:48  19Dec2023            

=------------------------------------------------------------------------------=
   JOB DONE.
=------------------------------------------------------------------------------=
