
     Program PWSCF v.6.6 starts on 19Dec2023 at 23:38:20 

     This program is part of the open-source Quantum ESPRESSO suite
     for quantum simulation of materials; please cite
         "P. Giannozzi et al., J. Phys.:Condens. Matter 21 395502 (2009);
         "P. Giannozzi et al., J. Phys.:Condens. Matter 29 465901 (2017);
          URL http://www.quantum-espresso.org", 
     in publications or presentations arising from this work. More details at
     http://www.quantum-espresso.org/quote

     Parallel version (MPI), running on     1 processors

     MPI processes distributed on     1 nodes
     Fft bands division:     nmany     =       1
     Reading input from lattice-in_6.88.in

     Current dimensions of program PWSCF are:
     Max number of different atomic species (ntypx) = 10
     Max number of k-points (npk) =  40000
     Max angular momentum in pseudopotentials (lmaxx) =  3

     Subspace diagonalization in iterative solution of the eigenvalue problem:
     a serial algorithm will be used


     G-vector sticks info
     --------------------
     sticks:   dense  smooth     PW     G-vecs:    dense   smooth      PW
     Sum         499     499    163                 7119     7119    1291



     bravais-lattice index     =            2
     lattice parameter (alat)  =       6.8800  a.u.
     unit-cell volume          =      81.4152 (a.u.)^3
     number of atoms/cell      =            2
     number of atomic types    =            1
     number of electrons       =         8.00
     number of Kohn-Sham states=            4
     kinetic-energy cutoff     =      75.0000  Ry
     charge density cutoff     =     300.0000  Ry
     convergence threshold     =      1.0E-08
     mixing beta               =       0.7000
     number of iterations used =            8  plain     mixing
     Exchange-correlation= PBE
                           (   1   4   3   4   0   0   0)

     celldm(1)=   6.880000  celldm(2)=   0.000000  celldm(3)=   0.000000
     celldm(4)=   0.000000  celldm(5)=   0.000000  celldm(6)=   0.000000

     crystal axes: (cart. coord. in units of alat)
               a(1) = (  -0.500000   0.000000   0.500000 )  
               a(2) = (   0.000000   0.500000   0.500000 )  
               a(3) = (  -0.500000   0.500000   0.000000 )  

     reciprocal axes: (cart. coord. in units 2 pi/alat)
               b(1) = ( -1.000000 -1.000000  1.000000 )  
               b(2) = (  1.000000  1.000000  1.000000 )  
               b(3) = ( -1.000000  1.000000 -1.000000 )  


     PseudoPot. # 1 for C  read from file:
     ./C.UPF
     MD5 check sum: ead9220225bd72a2f9a48cc2a638047d
     Pseudo is Norm-conserving + core correction, Zval =  4.0
     Generated using ONCVPSP code by D. R. Hamann
     Using radial grid of 1248 points,  4 beta functions with: 
                l(1) =   0
                l(2) =   0
                l(3) =   1
                l(4) =   1

     atomic species   valence    mass     pseudopotential
        C              4.00    12.01070     C ( 1.00)

     48 Sym. Ops., with inversion, found (24 have fractional translation)



   Cartesian axes

     site n.     atom                  positions (alat units)
         1           C   tau(   1) = (   0.0000000   0.0000000   0.0000000  )
         2           C   tau(   2) = (  -0.2500000   0.2500000   0.2500000  )

     number of k points=    10
                       cart. coord. in units 2pi/alat
        k(    1) = (  -0.1250000   0.1250000   0.1250000), wk =   0.0625000
        k(    2) = (  -0.3750000   0.3750000  -0.1250000), wk =   0.1875000
        k(    3) = (   0.3750000  -0.3750000   0.6250000), wk =   0.1875000
        k(    4) = (   0.1250000  -0.1250000   0.3750000), wk =   0.1875000
        k(    5) = (  -0.1250000   0.6250000   0.1250000), wk =   0.1875000
        k(    6) = (   0.6250000  -0.1250000   0.8750000), wk =   0.3750000
        k(    7) = (   0.3750000   0.1250000   0.6250000), wk =   0.3750000
        k(    8) = (  -0.1250000  -0.8750000   0.1250000), wk =   0.1875000
        k(    9) = (  -0.3750000   0.3750000   0.3750000), wk =   0.0625000
        k(   10) = (   0.3750000  -0.3750000   1.1250000), wk =   0.1875000

     Dense  grid:     7119 G-vectors     FFT dimensions: (  32,  32,  32)

     Estimated max dynamical RAM per process >       6.65 MB

     Initial potential from superposition of free atoms

     starting charge    7.99991, renormalised to    8.00000
     Starting wfcs are    8 randomized atomic wfcs

     total cpu time spent up to now is        0.2 secs

     Self-consistent Calculation

     iteration #  1     ecut=    75.00 Ry     beta= 0.70
     Davidson diagonalization with overlap
     ethr =  1.00E-02,  avg # of iterations =  2.0

     total cpu time spent up to now is        0.3 secs

     total energy              =     -24.06496380 Ry
     estimated scf accuracy    <       0.09317934 Ry

     iteration #  2     ecut=    75.00 Ry     beta= 0.70
     Davidson diagonalization with overlap
     ethr =  1.16E-03,  avg # of iterations =  1.4

     total cpu time spent up to now is        0.3 secs

     total energy              =     -24.07051254 Ry
     estimated scf accuracy    <       0.00344522 Ry

     iteration #  3     ecut=    75.00 Ry     beta= 0.70
     Davidson diagonalization with overlap
     ethr =  4.31E-05,  avg # of iterations =  2.8

     total cpu time spent up to now is        0.4 secs

     total energy              =     -24.07182445 Ry
     estimated scf accuracy    <       0.00008089 Ry

     iteration #  4     ecut=    75.00 Ry     beta= 0.70
     Davidson diagonalization with overlap
     ethr =  1.01E-06,  avg # of iterations =  5.4

     total cpu time spent up to now is        0.5 secs

     total energy              =     -24.07193567 Ry
     estimated scf accuracy    <       0.00001217 Ry

     iteration #  5     ecut=    75.00 Ry     beta= 0.70
     Davidson diagonalization with overlap
     ethr =  1.52E-07,  avg # of iterations =  2.6

     total cpu time spent up to now is        0.6 secs

     total energy              =     -24.07193894 Ry
     estimated scf accuracy    <       0.00000030 Ry

     iteration #  6     ecut=    75.00 Ry     beta= 0.70
     Davidson diagonalization with overlap
     ethr =  3.76E-09,  avg # of iterations =  4.4

     total cpu time spent up to now is        0.7 secs

     total energy              =     -24.07193927 Ry
     estimated scf accuracy    <       0.00000001 Ry

     iteration #  7     ecut=    75.00 Ry     beta= 0.70
     Davidson diagonalization with overlap
     ethr =  1.35E-10,  avg # of iterations =  4.1

     total cpu time spent up to now is        0.8 secs

     End of self-consistent calculation

          k =-0.1250 0.1250 0.1250 (   911 PWs)   bands (ev):

    -7.9913   9.9654  11.6604  11.6604

          k =-0.3750 0.3750-0.1250 (   896 PWs)   bands (ev):

    -5.8267   4.8250   8.1241  10.5285

          k = 0.3750-0.3750 0.6250 (   892 PWs)   bands (ev):

    -2.9919   0.2927   8.3045   8.9412

          k = 0.1250-0.1250 0.3750 (   894 PWs)   bands (ev):

    -6.8975   7.3919   9.5703  10.3074

          k =-0.1250 0.6250 0.1250 (   887 PWs)   bands (ev):

    -4.7572   4.9947   7.2975   7.6967

          k = 0.6250-0.1250 0.8750 (   895 PWs)   bands (ev):

    -1.0381   1.4750   4.3139   6.2958

          k = 0.3750 0.1250 0.6250 (   892 PWs)   bands (ev):

    -3.7630   2.8142   6.2836   8.4157

          k =-0.1250-0.8750 0.1250 (   899 PWs)   bands (ev):

    -1.7043   1.9054   5.3521   6.6795

          k =-0.3750 0.3750 0.3750 (   893 PWs)   bands (ev):

    -4.8000   2.0555   9.8779   9.8779

          k = 0.3750-0.3750 1.1250 (   890 PWs)   bands (ev):

    -2.0343   1.1762   4.8962   8.3025

     highest occupied level (ev):    11.6604

!    total energy              =     -24.07193927 Ry
     estimated scf accuracy    <          1.4E-09 Ry

     The total energy is the sum of the following terms:
     one-electron contribution =       7.56263958 Ry
     hartree contribution      =       1.99637605 Ry
     xc contribution           =      -8.57608028 Ry
     ewald contribution        =     -25.05487462 Ry

     convergence has been achieved in   7 iterations

     Writing output data file ./tmp/diamond.save/

     init_run     :      0.46s CPU      0.10s WALL (       1 calls)
     electrons    :      5.95s CPU      0.68s WALL (       1 calls)

     Called by init_run:
     wfcinit      :      0.36s CPU      0.05s WALL (       1 calls)
     potinit      :      0.03s CPU      0.01s WALL (       1 calls)
     hinit0       :      0.07s CPU      0.04s WALL (       1 calls)

     Called by electrons:
     c_bands      :      4.98s CPU      0.51s WALL (       7 calls)
     sum_band     :      0.80s CPU      0.09s WALL (       7 calls)
     v_of_rho     :      0.18s CPU      0.09s WALL (       8 calls)
     mix_rho      :      0.01s CPU      0.01s WALL (       7 calls)

     Called by c_bands:
     init_us_2    :      0.11s CPU      0.02s WALL (     150 calls)
     cegterg      :      4.61s CPU      0.48s WALL (      70 calls)

     Called by *egterg:
     cdiaghg      :      0.07s CPU      0.01s WALL (     297 calls)
     h_psi        :      4.61s CPU      0.48s WALL (     307 calls)
     g_psi        :      0.02s CPU      0.00s WALL (     227 calls)

     Called by h_psi:
     h_psi:calbec :      0.30s CPU      0.04s WALL (     307 calls)
     vloc_psi     :      4.11s CPU      0.43s WALL (     307 calls)
     add_vuspsi   :      0.20s CPU      0.02s WALL (     307 calls)

     General routines
     calbec       :      0.30s CPU      0.03s WALL (     307 calls)
     fft          :      0.08s CPU      0.04s WALL (      80 calls)
     ffts         :      0.03s CPU      0.00s WALL (       7 calls)
     fftw         :      4.05s CPU      0.42s WALL (    2362 calls)

     Parallel routines

     PWSCF        :      6.63s CPU      0.86s WALL


   This run was terminated on:  23:38:21  19Dec2023            

=------------------------------------------------------------------------------=
   JOB DONE.
=------------------------------------------------------------------------------=
