
     Program PWSCF v.6.6 starts on  5Jan2024 at 11:11:27 

     This program is part of the open-source Quantum ESPRESSO suite
     for quantum simulation of materials; please cite
         "P. Giannozzi et al., J. Phys.:Condens. Matter 21 395502 (2009);
         "P. Giannozzi et al., J. Phys.:Condens. Matter 29 465901 (2017);
          URL http://www.quantum-espresso.org", 
     in publications or presentations arising from this work. More details at
     http://www.quantum-espresso.org/quote

     Parallel version (MPI), running on     1 processors

     MPI processes distributed on     1 nodes
     Fft bands division:     nmany     =       1
     Reading input from lattice-in_7.01.in

     Current dimensions of program PWSCF are:
     Max number of different atomic species (ntypx) = 10
     Max number of k-points (npk) =  40000
     Max angular momentum in pseudopotentials (lmaxx) =  3

     Subspace diagonalization in iterative solution of the eigenvalue problem:
     a serial algorithm will be used


     G-vector sticks info
     --------------------
     sticks:   dense  smooth     PW     G-vecs:    dense   smooth      PW
     Sum         511     511    163                 7631     7631    1363



     bravais-lattice index     =            2
     lattice parameter (alat)  =       7.0100  a.u.
     unit-cell volume          =      86.1180 (a.u.)^3
     number of atoms/cell      =            2
     number of atomic types    =            1
     number of electrons       =         8.00
     number of Kohn-Sham states=            4
     kinetic-energy cutoff     =      75.0000  Ry
     charge density cutoff     =     300.0000  Ry
     convergence threshold     =      1.0E-08
     mixing beta               =       0.7000
     number of iterations used =            8  plain     mixing
     Exchange-correlation= PBE
                           (   1   4   3   4   0   0   0)

     celldm(1)=   7.010000  celldm(2)=   0.000000  celldm(3)=   0.000000
     celldm(4)=   0.000000  celldm(5)=   0.000000  celldm(6)=   0.000000

     crystal axes: (cart. coord. in units of alat)
               a(1) = (  -0.500000   0.000000   0.500000 )  
               a(2) = (   0.000000   0.500000   0.500000 )  
               a(3) = (  -0.500000   0.500000   0.000000 )  

     reciprocal axes: (cart. coord. in units 2 pi/alat)
               b(1) = ( -1.000000 -1.000000  1.000000 )  
               b(2) = (  1.000000  1.000000  1.000000 )  
               b(3) = ( -1.000000  1.000000 -1.000000 )  


     PseudoPot. # 1 for C  read from file:
     ./C.UPF
     MD5 check sum: ead9220225bd72a2f9a48cc2a638047d
     Pseudo is Norm-conserving + core correction, Zval =  4.0
     Generated using ONCVPSP code by D. R. Hamann
     Using radial grid of 1248 points,  4 beta functions with: 
                l(1) =   0
                l(2) =   0
                l(3) =   1
                l(4) =   1

     atomic species   valence    mass     pseudopotential
        C              4.00    12.01070     C ( 1.00)

     48 Sym. Ops., with inversion, found (24 have fractional translation)



   Cartesian axes

     site n.     atom                  positions (alat units)
         1           C   tau(   1) = (   0.0000000   0.0000000   0.0000000  )
         2           C   tau(   2) = (  -0.2500000   0.2500000   0.2500000  )

     number of k points=    10
                       cart. coord. in units 2pi/alat
        k(    1) = (  -0.1250000   0.1250000   0.1250000), wk =   0.0625000
        k(    2) = (  -0.3750000   0.3750000  -0.1250000), wk =   0.1875000
        k(    3) = (   0.3750000  -0.3750000   0.6250000), wk =   0.1875000
        k(    4) = (   0.1250000  -0.1250000   0.3750000), wk =   0.1875000
        k(    5) = (  -0.1250000   0.6250000   0.1250000), wk =   0.1875000
        k(    6) = (   0.6250000  -0.1250000   0.8750000), wk =   0.3750000
        k(    7) = (   0.3750000   0.1250000   0.6250000), wk =   0.3750000
        k(    8) = (  -0.1250000  -0.8750000   0.1250000), wk =   0.1875000
        k(    9) = (  -0.3750000   0.3750000   0.3750000), wk =   0.0625000
        k(   10) = (   0.3750000  -0.3750000   1.1250000), wk =   0.1875000

     Dense  grid:     7631 G-vectors     FFT dimensions: (  32,  32,  32)

     Estimated max dynamical RAM per process >       6.92 MB

     Initial potential from superposition of free atoms

     starting charge    7.99991, renormalised to    8.00000
     Starting wfcs are    8 randomized atomic wfcs

     total cpu time spent up to now is        0.2 secs

     Self-consistent Calculation

     iteration #  1     ecut=    75.00 Ry     beta= 0.70
     Davidson diagonalization with overlap
     ethr =  1.00E-02,  avg # of iterations =  2.0

     total cpu time spent up to now is        0.4 secs

     total energy              =     -24.05558867 Ry
     estimated scf accuracy    <       0.08128940 Ry

     iteration #  2     ecut=    75.00 Ry     beta= 0.70
     Davidson diagonalization with overlap
     ethr =  1.02E-03,  avg # of iterations =  1.5

     total cpu time spent up to now is        0.6 secs

     total energy              =     -24.06058979 Ry
     estimated scf accuracy    <       0.00318345 Ry

     iteration #  3     ecut=    75.00 Ry     beta= 0.70
     Davidson diagonalization with overlap
     ethr =  3.98E-05,  avg # of iterations =  3.0

     total cpu time spent up to now is        1.1 secs

     total energy              =     -24.06181649 Ry
     estimated scf accuracy    <       0.00007620 Ry

     iteration #  4     ecut=    75.00 Ry     beta= 0.70
     Davidson diagonalization with overlap
     ethr =  9.53E-07,  avg # of iterations =  5.1

     total cpu time spent up to now is        1.5 secs

     total energy              =     -24.06192136 Ry
     estimated scf accuracy    <       0.00001123 Ry

     iteration #  5     ecut=    75.00 Ry     beta= 0.70
     Davidson diagonalization with overlap
     ethr =  1.40E-07,  avg # of iterations =  2.7

     total cpu time spent up to now is        1.7 secs

     total energy              =     -24.06192476 Ry
     estimated scf accuracy    <       0.00000046 Ry

     iteration #  6     ecut=    75.00 Ry     beta= 0.70
     Davidson diagonalization with overlap
     ethr =  5.70E-09,  avg # of iterations =  4.1

     total cpu time spent up to now is        1.8 secs

     total energy              =     -24.06192505 Ry
     estimated scf accuracy    <       0.00000002 Ry

     iteration #  7     ecut=    75.00 Ry     beta= 0.70
     Davidson diagonalization with overlap
     ethr =  1.97E-10,  avg # of iterations =  4.8

     total cpu time spent up to now is        1.9 secs

     End of self-consistent calculation

          k =-0.1250 0.1250 0.1250 (   932 PWs)   bands (ev):

    -8.2431   9.1120  10.7522  10.7522

          k =-0.3750 0.3750-0.1250 (   945 PWs)   bands (ev):

    -6.1676   4.1582   7.3743   9.6737

          k = 0.3750-0.3750 0.6250 (   942 PWs)   bands (ev):

    -3.4977  -0.1434   7.5263   8.1744

          k = 0.1250-0.1250 0.3750 (   941 PWs)   bands (ev):

    -7.1929   6.6258   8.7808   9.4248

          k =-0.1250 0.6250 0.1250 (   947 PWs)   bands (ev):

    -5.1404   4.2561   6.5808   7.0024

          k = 0.6250-0.1250 0.8750 (   944 PWs)   bands (ev):

    -1.6165   0.8543   3.7795   5.6842

          k = 0.3750 0.1250 0.6250 (   942 PWs)   bands (ev):

    -4.1978   2.2102   5.6026   7.6749

          k =-0.1250-0.8750 0.1250 (   955 PWs)   bands (ev):

    -2.2197   1.2313   4.7861   6.0346

          k =-0.3750 0.3750 0.3750 (   941 PWs)   bands (ev):

    -5.1923   1.5164   9.0581   9.0581

          k = 0.3750-0.3750 1.1250 (   949 PWs)   bands (ev):

    -2.5775   0.6611   4.2849   7.5712

     highest occupied level (ev):    10.7522

!    total energy              =     -24.06192506 Ry
     estimated scf accuracy    <          2.6E-09 Ry

     The total energy is the sum of the following terms:
     one-electron contribution =       6.95559344 Ry
     hartree contribution      =       2.05722346 Ry
     xc contribution           =      -8.48450838 Ry
     ewald contribution        =     -24.59023358 Ry

     convergence has been achieved in   7 iterations

     Writing output data file ./tmp/diamond.save/

     init_run     :      0.92s CPU      0.18s WALL (       1 calls)
     electrons    :     11.81s CPU      1.71s WALL (       1 calls)

     Called by init_run:
     wfcinit      :      0.81s CPU      0.12s WALL (       1 calls)
     potinit      :      0.03s CPU      0.01s WALL (       1 calls)
     hinit0       :      0.07s CPU      0.04s WALL (       1 calls)

     Called by electrons:
     c_bands      :     11.01s CPU      1.51s WALL (       7 calls)
     sum_band     :      0.56s CPU      0.09s WALL (       7 calls)
     v_of_rho     :      0.22s CPU      0.11s WALL (       8 calls)
     mix_rho      :      0.04s CPU      0.01s WALL (       7 calls)

     Called by c_bands:
     init_us_2    :      0.09s CPU      0.02s WALL (     150 calls)
     cegterg      :     10.82s CPU      1.48s WALL (      70 calls)

     Called by *egterg:
     cdiaghg      :      0.07s CPU      0.01s WALL (     302 calls)
     h_psi        :     11.12s CPU      1.54s WALL (     312 calls)
     g_psi        :      0.02s CPU      0.00s WALL (     232 calls)

     Called by h_psi:
     h_psi:calbec :      4.03s CPU      0.56s WALL (     312 calls)
     vloc_psi     :      3.38s CPU      0.48s WALL (     312 calls)
     add_vuspsi   :      3.63s CPU      0.49s WALL (     312 calls)

     General routines
     calbec       :      4.03s CPU      0.56s WALL (     312 calls)
     fft          :      0.11s CPU      0.04s WALL (      80 calls)
     ffts         :      0.02s CPU      0.00s WALL (       7 calls)
     fftw         :      3.32s CPU      0.47s WALL (    2370 calls)

     Parallel routines

     PWSCF        :     12.85s CPU      1.96s WALL


   This run was terminated on:  11:11:29   5Jan2024            

=------------------------------------------------------------------------------=
   JOB DONE.
=------------------------------------------------------------------------------=
