
     Program PWSCF v.6.6 starts on  5Jan2024 at 15:13:47 

     This program is part of the open-source Quantum ESPRESSO suite
     for quantum simulation of materials; please cite
         "P. Giannozzi et al., J. Phys.:Condens. Matter 21 395502 (2009);
         "P. Giannozzi et al., J. Phys.:Condens. Matter 29 465901 (2017);
          URL http://www.quantum-espresso.org", 
     in publications or presentations arising from this work. More details at
     http://www.quantum-espresso.org/quote

     Parallel version (MPI), running on     1 processors

     MPI processes distributed on     1 nodes
     Fft bands division:     nmany     =       1
     Reading input from lattice-in_6.62.in

     Current dimensions of program PWSCF are:
     Max number of different atomic species (ntypx) = 10
     Max number of k-points (npk) =  40000
     Max angular momentum in pseudopotentials (lmaxx) =  3

     Subspace diagonalization in iterative solution of the eigenvalue problem:
     a serial algorithm will be used


     G-vector sticks info
     --------------------
     sticks:   dense  smooth     PW     G-vecs:    dense   smooth      PW
     Sum         451     451    151                 6375     6375    1211



     bravais-lattice index     =            2
     lattice parameter (alat)  =       6.6200  a.u.
     unit-cell volume          =      72.5294 (a.u.)^3
     number of atoms/cell      =            2
     number of atomic types    =            1
     number of electrons       =         8.00
     number of Kohn-Sham states=            4
     kinetic-energy cutoff     =      75.0000  Ry
     charge density cutoff     =     300.0000  Ry
     convergence threshold     =      1.0E-08
     mixing beta               =       0.7000
     number of iterations used =            8  plain     mixing
     Exchange-correlation= PBE
                           (   1   4   3   4   0   0   0)

     celldm(1)=   6.620000  celldm(2)=   0.000000  celldm(3)=   0.000000
     celldm(4)=   0.000000  celldm(5)=   0.000000  celldm(6)=   0.000000

     crystal axes: (cart. coord. in units of alat)
               a(1) = (  -0.500000   0.000000   0.500000 )  
               a(2) = (   0.000000   0.500000   0.500000 )  
               a(3) = (  -0.500000   0.500000   0.000000 )  

     reciprocal axes: (cart. coord. in units 2 pi/alat)
               b(1) = ( -1.000000 -1.000000  1.000000 )  
               b(2) = (  1.000000  1.000000  1.000000 )  
               b(3) = ( -1.000000  1.000000 -1.000000 )  


     PseudoPot. # 1 for C  read from file:
     ./C.UPF
     MD5 check sum: ead9220225bd72a2f9a48cc2a638047d
     Pseudo is Norm-conserving + core correction, Zval =  4.0
     Generated using ONCVPSP code by D. R. Hamann
     Using radial grid of 1248 points,  4 beta functions with: 
                l(1) =   0
                l(2) =   0
                l(3) =   1
                l(4) =   1

     atomic species   valence    mass     pseudopotential
        C              4.00    12.01070     C ( 1.00)

     48 Sym. Ops., with inversion, found (24 have fractional translation)



   Cartesian axes

     site n.     atom                  positions (alat units)
         1           C   tau(   1) = (   0.0000000   0.0000000   0.0000000  )
         2           C   tau(   2) = (  -0.2500000   0.2500000   0.2500000  )

     number of k points=    10
                       cart. coord. in units 2pi/alat
        k(    1) = (  -0.1250000   0.1250000   0.1250000), wk =   0.0625000
        k(    2) = (  -0.3750000   0.3750000  -0.1250000), wk =   0.1875000
        k(    3) = (   0.3750000  -0.3750000   0.6250000), wk =   0.1875000
        k(    4) = (   0.1250000  -0.1250000   0.3750000), wk =   0.1875000
        k(    5) = (  -0.1250000   0.6250000   0.1250000), wk =   0.1875000
        k(    6) = (   0.6250000  -0.1250000   0.8750000), wk =   0.3750000
        k(    7) = (   0.3750000   0.1250000   0.6250000), wk =   0.3750000
        k(    8) = (  -0.1250000  -0.8750000   0.1250000), wk =   0.1875000
        k(    9) = (  -0.3750000   0.3750000   0.3750000), wk =   0.0625000
        k(   10) = (   0.3750000  -0.3750000   1.1250000), wk =   0.1875000

     Dense  grid:     6375 G-vectors     FFT dimensions: (  32,  32,  32)

     Estimated max dynamical RAM per process >       6.23 MB

     Initial potential from superposition of free atoms

     starting charge    7.99991, renormalised to    8.00000
     Starting wfcs are    8 randomized atomic wfcs

     total cpu time spent up to now is        0.2 secs

     Self-consistent Calculation

     iteration #  1     ecut=    75.00 Ry     beta= 0.70
     Davidson diagonalization with overlap
     ethr =  1.00E-02,  avg # of iterations =  2.0

     total cpu time spent up to now is        0.4 secs

     total energy              =     -24.06245313 Ry
     estimated scf accuracy    <       0.12229994 Ry

     iteration #  2     ecut=    75.00 Ry     beta= 0.70
     Davidson diagonalization with overlap
     ethr =  1.53E-03,  avg # of iterations =  1.3

     total cpu time spent up to now is        0.5 secs

     total energy              =     -24.06968811 Ry
     estimated scf accuracy    <       0.00400303 Ry

     iteration #  3     ecut=    75.00 Ry     beta= 0.70
     Davidson diagonalization with overlap
     ethr =  5.00E-05,  avg # of iterations =  2.8

     total cpu time spent up to now is        0.7 secs

     total energy              =     -24.07131195 Ry
     estimated scf accuracy    <       0.00009004 Ry

     iteration #  4     ecut=    75.00 Ry     beta= 0.70
     Davidson diagonalization with overlap
     ethr =  1.13E-06,  avg # of iterations =  5.2

     total cpu time spent up to now is        1.0 secs

     total energy              =     -24.07141778 Ry
     estimated scf accuracy    <       0.00001432 Ry

     iteration #  5     ecut=    75.00 Ry     beta= 0.70
     Davidson diagonalization with overlap
     ethr =  1.79E-07,  avg # of iterations =  2.6

     total cpu time spent up to now is        1.1 secs

     total energy              =     -24.07142151 Ry
     estimated scf accuracy    <       0.00000082 Ry

     iteration #  6     ecut=    75.00 Ry     beta= 0.70
     Davidson diagonalization with overlap
     ethr =  1.02E-08,  avg # of iterations =  3.1

     total cpu time spent up to now is        1.2 secs

     total energy              =     -24.07142179 Ry
     estimated scf accuracy    <       0.00000002 Ry

     iteration #  7     ecut=    75.00 Ry     beta= 0.70
     Davidson diagonalization with overlap
     ethr =  2.73E-10,  avg # of iterations =  4.2

     total cpu time spent up to now is        1.3 secs

     End of self-consistent calculation

          k =-0.1250 0.1250 0.1250 (   803 PWs)   bands (ev):

    -7.4266  11.8369  13.6637  13.6637

          k =-0.3750 0.3750-0.1250 (   800 PWs)   bands (ev):

    -5.0736   6.2821   9.7792  12.4144

          k = 0.3750-0.3750 0.6250 (   796 PWs)   bands (ev):

    -1.8804   1.2505  10.0211  10.6317

          k = 0.1250-0.1250 0.3750 (   804 PWs)   bands (ev):

    -6.2407   9.0616  11.3087  12.2582

          k =-0.1250 0.6250 0.1250 (   800 PWs)   bands (ev):

    -3.9135   6.5905   8.8972   9.2256

          k = 0.6250-0.1250 0.8750 (   788 PWs)   bands (ev):

     0.2316   2.8150   5.5165   7.6440

          k = 0.3750 0.1250 0.6250 (   794 PWs)   bands (ev):

    -2.8105   4.1284   7.7963  10.0510

          k =-0.1250-0.8750 0.1250 (   786 PWs)   bands (ev):

    -0.5772   3.3821   6.6008   8.1001

          k =-0.3750 0.3750 0.3750 (   796 PWs)   bands (ev):

    -3.9389   3.2445  11.6860  11.6860

          k = 0.3750-0.3750 1.1250 (   791 PWs)   bands (ev):

    -0.8416   2.2874   6.2640   9.9136

     highest occupied level (ev):    13.6637

!    total energy              =     -24.07142181 Ry
     estimated scf accuracy    <          4.2E-09 Ry

     The total energy is the sum of the following terms:
     one-electron contribution =       8.86472152 Ry
     hartree contribution      =       1.87713253 Ry
     xc contribution           =      -8.77437292 Ry
     ewald contribution        =     -26.03890293 Ry

     convergence has been achieved in   7 iterations

     Writing output data file ./tmp/diamond.save/

     init_run     :      0.86s CPU      0.15s WALL (       1 calls)
     electrons    :      8.60s CPU      1.08s WALL (       1 calls)

     Called by init_run:
     wfcinit      :      0.77s CPU      0.10s WALL (       1 calls)
     potinit      :      0.03s CPU      0.02s WALL (       1 calls)
     hinit0       :      0.06s CPU      0.03s WALL (       1 calls)

     Called by electrons:
     c_bands      :      7.92s CPU      0.94s WALL (       7 calls)
     sum_band     :      0.46s CPU      0.07s WALL (       7 calls)
     v_of_rho     :      0.21s CPU      0.08s WALL (       8 calls)
     mix_rho      :      0.03s CPU      0.00s WALL (       7 calls)

     Called by c_bands:
     init_us_2    :      0.09s CPU      0.01s WALL (     150 calls)
     cegterg      :      7.79s CPU      0.92s WALL (      70 calls)

     Called by *egterg:
     cdiaghg      :      0.07s CPU      0.01s WALL (     282 calls)
     h_psi        :      8.14s CPU      0.97s WALL (     292 calls)
     g_psi        :      0.03s CPU      0.00s WALL (     212 calls)

     Called by h_psi:
     h_psi:calbec :      2.26s CPU      0.27s WALL (     292 calls)
     vloc_psi     :      3.21s CPU      0.39s WALL (     292 calls)
     add_vuspsi   :      2.65s CPU      0.31s WALL (     292 calls)

     General routines
     calbec       :      2.26s CPU      0.27s WALL (     292 calls)
     fft          :      0.11s CPU      0.04s WALL (      80 calls)
     ffts         :      0.01s CPU      0.00s WALL (       7 calls)
     fftw         :      3.03s CPU      0.37s WALL (    2294 calls)

     Parallel routines

     PWSCF        :      9.59s CPU      1.31s WALL


   This run was terminated on:  15:13:49   5Jan2024            

=------------------------------------------------------------------------------=
   JOB DONE.
=------------------------------------------------------------------------------=
