
     Program PWSCF v.6.6 starts on  5Jan2024 at 15:14:37 

     This program is part of the open-source Quantum ESPRESSO suite
     for quantum simulation of materials; please cite
         "P. Giannozzi et al., J. Phys.:Condens. Matter 21 395502 (2009);
         "P. Giannozzi et al., J. Phys.:Condens. Matter 29 465901 (2017);
          URL http://www.quantum-espresso.org", 
     in publications or presentations arising from this work. More details at
     http://www.quantum-espresso.org/quote

     Parallel version (MPI), running on     1 processors

     MPI processes distributed on     1 nodes
     Fft bands division:     nmany     =       1
     Reading input from lattice-in_6.94.in

     Current dimensions of program PWSCF are:
     Max number of different atomic species (ntypx) = 10
     Max number of k-points (npk) =  40000
     Max angular momentum in pseudopotentials (lmaxx) =  3

     Subspace diagonalization in iterative solution of the eigenvalue problem:
     a serial algorithm will be used


     G-vector sticks info
     --------------------
     sticks:   dense  smooth     PW     G-vecs:    dense   smooth      PW
     Sum         499     499    163                 7391     7391    1363



     bravais-lattice index     =            2
     lattice parameter (alat)  =       6.9400  a.u.
     unit-cell volume          =      83.5638 (a.u.)^3
     number of atoms/cell      =            2
     number of atomic types    =            1
     number of electrons       =         8.00
     number of Kohn-Sham states=            4
     kinetic-energy cutoff     =      75.0000  Ry
     charge density cutoff     =     300.0000  Ry
     convergence threshold     =      1.0E-08
     mixing beta               =       0.7000
     number of iterations used =            8  plain     mixing
     Exchange-correlation= PBE
                           (   1   4   3   4   0   0   0)

     celldm(1)=   6.940000  celldm(2)=   0.000000  celldm(3)=   0.000000
     celldm(4)=   0.000000  celldm(5)=   0.000000  celldm(6)=   0.000000

     crystal axes: (cart. coord. in units of alat)
               a(1) = (  -0.500000   0.000000   0.500000 )  
               a(2) = (   0.000000   0.500000   0.500000 )  
               a(3) = (  -0.500000   0.500000   0.000000 )  

     reciprocal axes: (cart. coord. in units 2 pi/alat)
               b(1) = ( -1.000000 -1.000000  1.000000 )  
               b(2) = (  1.000000  1.000000  1.000000 )  
               b(3) = ( -1.000000  1.000000 -1.000000 )  


     PseudoPot. # 1 for C  read from file:
     ./C.UPF
     MD5 check sum: ead9220225bd72a2f9a48cc2a638047d
     Pseudo is Norm-conserving + core correction, Zval =  4.0
     Generated using ONCVPSP code by D. R. Hamann
     Using radial grid of 1248 points,  4 beta functions with: 
                l(1) =   0
                l(2) =   0
                l(3) =   1
                l(4) =   1

     atomic species   valence    mass     pseudopotential
        C              4.00    12.01070     C ( 1.00)

     48 Sym. Ops., with inversion, found (24 have fractional translation)



   Cartesian axes

     site n.     atom                  positions (alat units)
         1           C   tau(   1) = (   0.0000000   0.0000000   0.0000000  )
         2           C   tau(   2) = (  -0.2500000   0.2500000   0.2500000  )

     number of k points=    10
                       cart. coord. in units 2pi/alat
        k(    1) = (  -0.1250000   0.1250000   0.1250000), wk =   0.0625000
        k(    2) = (  -0.3750000   0.3750000  -0.1250000), wk =   0.1875000
        k(    3) = (   0.3750000  -0.3750000   0.6250000), wk =   0.1875000
        k(    4) = (   0.1250000  -0.1250000   0.3750000), wk =   0.1875000
        k(    5) = (  -0.1250000   0.6250000   0.1250000), wk =   0.1875000
        k(    6) = (   0.6250000  -0.1250000   0.8750000), wk =   0.3750000
        k(    7) = (   0.3750000   0.1250000   0.6250000), wk =   0.3750000
        k(    8) = (  -0.1250000  -0.8750000   0.1250000), wk =   0.1875000
        k(    9) = (  -0.3750000   0.3750000   0.3750000), wk =   0.0625000
        k(   10) = (   0.3750000  -0.3750000   1.1250000), wk =   0.1875000

     Dense  grid:     7391 G-vectors     FFT dimensions: (  32,  32,  32)

     Estimated max dynamical RAM per process >       6.79 MB

     Initial potential from superposition of free atoms

     starting charge    7.99991, renormalised to    8.00000
     Starting wfcs are    8 randomized atomic wfcs

     total cpu time spent up to now is        0.2 secs

     Self-consistent Calculation

     iteration #  1     ecut=    75.00 Ry     beta= 0.70
     Davidson diagonalization with overlap
     ethr =  1.00E-02,  avg # of iterations =  2.0

     total cpu time spent up to now is        0.3 secs

     total energy              =     -24.06126103 Ry
     estimated scf accuracy    <       0.08751814 Ry

     iteration #  2     ecut=    75.00 Ry     beta= 0.70
     Davidson diagonalization with overlap
     ethr =  1.09E-03,  avg # of iterations =  1.3

     total cpu time spent up to now is        0.4 secs

     total energy              =     -24.06658429 Ry
     estimated scf accuracy    <       0.00332437 Ry

     iteration #  3     ecut=    75.00 Ry     beta= 0.70
     Davidson diagonalization with overlap
     ethr =  4.16E-05,  avg # of iterations =  2.8

     total cpu time spent up to now is        0.6 secs

     total energy              =     -24.06793016 Ry
     estimated scf accuracy    <       0.00007741 Ry

     iteration #  4     ecut=    75.00 Ry     beta= 0.70
     Davidson diagonalization with overlap
     ethr =  9.68E-07,  avg # of iterations =  5.1

     total cpu time spent up to now is        1.0 secs

     total energy              =     -24.06804775 Ry
     estimated scf accuracy    <       0.00001063 Ry

     iteration #  5     ecut=    75.00 Ry     beta= 0.70
     Davidson diagonalization with overlap
     ethr =  1.33E-07,  avg # of iterations =  2.6

     total cpu time spent up to now is        1.1 secs

     total energy              =     -24.06805110 Ry
     estimated scf accuracy    <       0.00000076 Ry

     iteration #  6     ecut=    75.00 Ry     beta= 0.70
     Davidson diagonalization with overlap
     ethr =  9.47E-09,  avg # of iterations =  3.3

     total cpu time spent up to now is        1.5 secs

     total energy              =     -24.06805139 Ry
     estimated scf accuracy    <       0.00000001 Ry

     iteration #  7     ecut=    75.00 Ry     beta= 0.70
     Davidson diagonalization with overlap
     ethr =  1.49E-10,  avg # of iterations =  5.2

     total cpu time spent up to now is        1.8 secs

     End of self-consistent calculation

          k =-0.1250 0.1250 0.1250 (   914 PWs)   bands (ev):

    -8.1098   9.5653  11.2342  11.2342

          k =-0.3750 0.3750-0.1250 (   915 PWs)   bands (ev):

    -5.9867   4.5126   7.7721  10.1272

          k = 0.3750-0.3750 0.6250 (   915 PWs)   bands (ev):

    -3.2292   0.0883   7.9390   8.5812

          k = 0.1250-0.1250 0.3750 (   919 PWs)   bands (ev):

    -7.0363   7.0332   9.1997   9.8928

          k =-0.1250 0.6250 0.1250 (   912 PWs)   bands (ev):

    -4.9370   4.6493   6.9605   7.3708

          k = 0.6250-0.1250 0.8750 (   917 PWs)   bands (ev):

    -1.3094   1.1847   4.0622   6.0088

          k = 0.3750 0.1250 0.6250 (   913 PWs)   bands (ev):

    -3.9669   2.5314   5.9635   8.0679

          k =-0.1250-0.8750 0.1250 (   919 PWs)   bands (ev):

    -1.9458   1.5893   5.0865   6.3769

          k =-0.3750 0.3750 0.3750 (   917 PWs)   bands (ev):

    -4.9839   1.8025   9.4932   9.4932

          k = 0.3750-0.3750 1.1250 (   917 PWs)   bands (ev):

    -2.2892   0.9355   4.6084   7.9592

     highest occupied level (ev):    11.2342

!    total energy              =     -24.06805141 Ry
     estimated scf accuracy    <          1.8E-09 Ry

     The total energy is the sum of the following terms:
     one-electron contribution =       7.27908156 Ry
     hartree contribution      =       2.02433251 Ry
     xc contribution           =      -8.53320360 Ry
     ewald contribution        =     -24.83826188 Ry

     convergence has been achieved in   7 iterations

     Writing output data file ./tmp/diamond.save/

     init_run     :      0.54s CPU      0.12s WALL (       1 calls)
     electrons    :     11.73s CPU      1.60s WALL (       1 calls)

     Called by init_run:
     wfcinit      :      0.44s CPU      0.06s WALL (       1 calls)
     potinit      :      0.02s CPU      0.01s WALL (       1 calls)
     hinit0       :      0.07s CPU      0.04s WALL (       1 calls)

     Called by electrons:
     c_bands      :     10.95s CPU      1.42s WALL (       7 calls)
     sum_band     :      0.51s CPU      0.10s WALL (       7 calls)
     v_of_rho     :      0.24s CPU      0.07s WALL (       8 calls)
     mix_rho      :      0.05s CPU      0.01s WALL (       7 calls)

     Called by c_bands:
     init_us_2    :      0.09s CPU      0.02s WALL (     150 calls)
     cegterg      :     10.82s CPU      1.40s WALL (      70 calls)

     Called by *egterg:
     cdiaghg      :      0.06s CPU      0.01s WALL (     293 calls)
     h_psi        :     10.85s CPU      1.40s WALL (     303 calls)
     g_psi        :      0.02s CPU      0.00s WALL (     223 calls)

     Called by h_psi:
     h_psi:calbec :      4.52s CPU      0.58s WALL (     303 calls)
     vloc_psi     :      3.34s CPU      0.44s WALL (     303 calls)
     add_vuspsi   :      2.97s CPU      0.38s WALL (     303 calls)

     General routines
     calbec       :      4.51s CPU      0.58s WALL (     303 calls)
     fft          :      0.12s CPU      0.04s WALL (      80 calls)
     ffts         :      0.02s CPU      0.00s WALL (       7 calls)
     fftw         :      3.06s CPU      0.44s WALL (    2362 calls)

     Parallel routines

     PWSCF        :     12.41s CPU      1.79s WALL


   This run was terminated on:  15:14:39   5Jan2024            

=------------------------------------------------------------------------------=
   JOB DONE.
=------------------------------------------------------------------------------=
