
     Program PWSCF v.6.6 starts on  5Jan2024 at 15:13:36 

     This program is part of the open-source Quantum ESPRESSO suite
     for quantum simulation of materials; please cite
         "P. Giannozzi et al., J. Phys.:Condens. Matter 21 395502 (2009);
         "P. Giannozzi et al., J. Phys.:Condens. Matter 29 465901 (2017);
          URL http://www.quantum-espresso.org", 
     in publications or presentations arising from this work. More details at
     http://www.quantum-espresso.org/quote

     Parallel version (MPI), running on     1 processors

     MPI processes distributed on     1 nodes
     Fft bands division:     nmany     =       1
     Reading input from lattice-in_6.54.in

     Current dimensions of program PWSCF are:
     Max number of different atomic species (ntypx) = 10
     Max number of k-points (npk) =  40000
     Max angular momentum in pseudopotentials (lmaxx) =  3

     Subspace diagonalization in iterative solution of the eigenvalue problem:
     a serial algorithm will be used


     G-vector sticks info
     --------------------
     sticks:   dense  smooth     PW     G-vecs:    dense   smooth      PW
     Sum         439     439    151                 6183     6183    1139



     bravais-lattice index     =            2
     lattice parameter (alat)  =       6.5400  a.u.
     unit-cell volume          =      69.9316 (a.u.)^3
     number of atoms/cell      =            2
     number of atomic types    =            1
     number of electrons       =         8.00
     number of Kohn-Sham states=            4
     kinetic-energy cutoff     =      75.0000  Ry
     charge density cutoff     =     300.0000  Ry
     convergence threshold     =      1.0E-08
     mixing beta               =       0.7000
     number of iterations used =            8  plain     mixing
     Exchange-correlation= PBE
                           (   1   4   3   4   0   0   0)

     celldm(1)=   6.540000  celldm(2)=   0.000000  celldm(3)=   0.000000
     celldm(4)=   0.000000  celldm(5)=   0.000000  celldm(6)=   0.000000

     crystal axes: (cart. coord. in units of alat)
               a(1) = (  -0.500000   0.000000   0.500000 )  
               a(2) = (   0.000000   0.500000   0.500000 )  
               a(3) = (  -0.500000   0.500000   0.000000 )  

     reciprocal axes: (cart. coord. in units 2 pi/alat)
               b(1) = ( -1.000000 -1.000000  1.000000 )  
               b(2) = (  1.000000  1.000000  1.000000 )  
               b(3) = ( -1.000000  1.000000 -1.000000 )  


     PseudoPot. # 1 for C  read from file:
     ./C.UPF
     MD5 check sum: ead9220225bd72a2f9a48cc2a638047d
     Pseudo is Norm-conserving + core correction, Zval =  4.0
     Generated using ONCVPSP code by D. R. Hamann
     Using radial grid of 1248 points,  4 beta functions with: 
                l(1) =   0
                l(2) =   0
                l(3) =   1
                l(4) =   1

     atomic species   valence    mass     pseudopotential
        C              4.00    12.01070     C ( 1.00)

     48 Sym. Ops., with inversion, found (24 have fractional translation)



   Cartesian axes

     site n.     atom                  positions (alat units)
         1           C   tau(   1) = (   0.0000000   0.0000000   0.0000000  )
         2           C   tau(   2) = (  -0.2500000   0.2500000   0.2500000  )

     number of k points=    10
                       cart. coord. in units 2pi/alat
        k(    1) = (  -0.1250000   0.1250000   0.1250000), wk =   0.0625000
        k(    2) = (  -0.3750000   0.3750000  -0.1250000), wk =   0.1875000
        k(    3) = (   0.3750000  -0.3750000   0.6250000), wk =   0.1875000
        k(    4) = (   0.1250000  -0.1250000   0.3750000), wk =   0.1875000
        k(    5) = (  -0.1250000   0.6250000   0.1250000), wk =   0.1875000
        k(    6) = (   0.6250000  -0.1250000   0.8750000), wk =   0.3750000
        k(    7) = (   0.3750000   0.1250000   0.6250000), wk =   0.3750000
        k(    8) = (  -0.1250000  -0.8750000   0.1250000), wk =   0.1875000
        k(    9) = (  -0.3750000   0.3750000   0.3750000), wk =   0.0625000
        k(   10) = (   0.3750000  -0.3750000   1.1250000), wk =   0.1875000

     Dense  grid:     6183 G-vectors     FFT dimensions: (  32,  32,  32)

     Estimated max dynamical RAM per process >       6.11 MB

     Initial potential from superposition of free atoms

     starting charge    7.99991, renormalised to    8.00000
     Starting wfcs are    8 randomized atomic wfcs

     total cpu time spent up to now is        0.2 secs

     Self-consistent Calculation

     iteration #  1     ecut=    75.00 Ry     beta= 0.70
     Davidson diagonalization with overlap
     ethr =  1.00E-02,  avg # of iterations =  2.0

     total cpu time spent up to now is        0.3 secs

     total energy              =     -24.05505620 Ry
     estimated scf accuracy    <       0.13242717 Ry

     iteration #  2     ecut=    75.00 Ry     beta= 0.70
     Davidson diagonalization with overlap
     ethr =  1.66E-03,  avg # of iterations =  1.3

     total cpu time spent up to now is        0.4 secs

     total energy              =     -24.06282098 Ry
     estimated scf accuracy    <       0.00423425 Ry

     iteration #  3     ecut=    75.00 Ry     beta= 0.70
     Davidson diagonalization with overlap
     ethr =  5.29E-05,  avg # of iterations =  2.8

     total cpu time spent up to now is        0.9 secs

     total energy              =     -24.06451888 Ry
     estimated scf accuracy    <       0.00009408 Ry

     iteration #  4     ecut=    75.00 Ry     beta= 0.70
     Davidson diagonalization with overlap
     ethr =  1.18E-06,  avg # of iterations =  5.0

     total cpu time spent up to now is        1.1 secs

     total energy              =     -24.06461876 Ry
     estimated scf accuracy    <       0.00001521 Ry

     iteration #  5     ecut=    75.00 Ry     beta= 0.70
     Davidson diagonalization with overlap
     ethr =  1.90E-07,  avg # of iterations =  2.5

     total cpu time spent up to now is        1.2 secs

     total energy              =     -24.06462287 Ry
     estimated scf accuracy    <       0.00000098 Ry

     iteration #  6     ecut=    75.00 Ry     beta= 0.70
     Davidson diagonalization with overlap
     ethr =  1.22E-08,  avg # of iterations =  3.1

     total cpu time spent up to now is        1.3 secs

     total energy              =     -24.06462325 Ry
     estimated scf accuracy    <       0.00000002 Ry

     iteration #  7     ecut=    75.00 Ry     beta= 0.70
     Davidson diagonalization with overlap
     ethr =  2.25E-10,  avg # of iterations =  4.8

     total cpu time spent up to now is        1.5 secs

     End of self-consistent calculation

          k =-0.1250 0.1250 0.1250 (   770 PWs)   bands (ev):

    -7.2342  12.4614  14.3351  14.3351

          k =-0.3750 0.3750-0.1250 (   773 PWs)   bands (ev):

    -4.8205   6.7680  10.3345  13.0468

          k = 0.3750-0.3750 0.6250 (   767 PWs)   bands (ev):

    -1.5096   1.5726  10.5971  11.1982

          k = 0.1250-0.1250 0.3750 (   774 PWs)   bands (ev):

    -6.0185   9.6169  11.8909  12.9131

          k =-0.1250 0.6250 0.1250 (   768 PWs)   bands (ev):

    -3.6307   7.1166   9.4395   9.7378

          k = 0.6250-0.1250 0.8750 (   757 PWs)   bands (ev):

     0.6552   3.2559   5.9278   8.0958

          k = 0.3750 0.1250 0.6250 (   768 PWs)   bands (ev):

    -2.4928   4.5652   8.3061  10.5999

          k =-0.1250-0.8750 0.1250 (   762 PWs)   bands (ev):

    -0.2017   3.8747   7.0195   8.5761

          k =-0.3750 0.3750 0.3750 (   763 PWs)   bands (ev):

    -3.6511   3.6443  12.2925  12.2925

          k = 0.3750-0.3750 1.1250 (   767 PWs)   bands (ev):

    -0.4437   2.6549   6.7278  10.4533

     highest occupied level (ev):    14.3351

!    total energy              =     -24.06462327 Ry
     estimated scf accuracy    <          1.3E-09 Ry

     The total energy is the sum of the following terms:
     one-electron contribution =       9.29149309 Ry
     hartree contribution      =       1.84099372 Ry
     xc contribution           =      -8.83968846 Ry
     ewald contribution        =     -26.35742162 Ry

     convergence has been achieved in   7 iterations

     Writing output data file ./tmp/diamond.save/

     init_run     :      0.98s CPU      0.16s WALL (       1 calls)
     electrons    :      9.18s CPU      1.26s WALL (       1 calls)

     Called by init_run:
     wfcinit      :      0.89s CPU      0.11s WALL (       1 calls)
     potinit      :      0.02s CPU      0.01s WALL (       1 calls)
     hinit0       :      0.06s CPU      0.03s WALL (       1 calls)

     Called by electrons:
     c_bands      :      8.56s CPU      1.10s WALL (       7 calls)
     sum_band     :      0.48s CPU      0.08s WALL (       7 calls)
     v_of_rho     :      0.14s CPU      0.08s WALL (       8 calls)
     mix_rho      :      0.01s CPU      0.00s WALL (       7 calls)

     Called by c_bands:
     init_us_2    :      0.08s CPU      0.01s WALL (     150 calls)
     cegterg      :      8.44s CPU      1.08s WALL (      70 calls)

     Called by *egterg:
     cdiaghg      :      0.08s CPU      0.01s WALL (     285 calls)
     h_psi        :      8.98s CPU      1.15s WALL (     295 calls)
     g_psi        :      0.01s CPU      0.00s WALL (     215 calls)

     Called by h_psi:
     h_psi:calbec :      3.00s CPU      0.39s WALL (     295 calls)
     vloc_psi     :      2.96s CPU      0.36s WALL (     295 calls)
     add_vuspsi   :      3.01s CPU      0.40s WALL (     295 calls)

     General routines
     calbec       :      2.99s CPU      0.39s WALL (     295 calls)
     fft          :      0.07s CPU      0.04s WALL (      80 calls)
     ffts         :      0.01s CPU      0.00s WALL (       7 calls)
     fftw         :      2.83s CPU      0.35s WALL (    2324 calls)

     Parallel routines

     PWSCF        :     10.28s CPU      1.48s WALL


   This run was terminated on:  15:13:37   5Jan2024            

=------------------------------------------------------------------------------=
   JOB DONE.
=------------------------------------------------------------------------------=
