
     Program PWSCF v.6.6 starts on 19Dec2023 at 23:37:51 

     This program is part of the open-source Quantum ESPRESSO suite
     for quantum simulation of materials; please cite
         "P. Giannozzi et al., J. Phys.:Condens. Matter 21 395502 (2009);
         "P. Giannozzi et al., J. Phys.:Condens. Matter 29 465901 (2017);
          URL http://www.quantum-espresso.org", 
     in publications or presentations arising from this work. More details at
     http://www.quantum-espresso.org/quote

     Parallel version (MPI), running on     1 processors

     MPI processes distributed on     1 nodes
     Fft bands division:     nmany     =       1
     Reading input from lattice-in_6.55.in

     Current dimensions of program PWSCF are:
     Max number of different atomic species (ntypx) = 10
     Max number of k-points (npk) =  40000
     Max angular momentum in pseudopotentials (lmaxx) =  3

     Subspace diagonalization in iterative solution of the eigenvalue problem:
     a serial algorithm will be used


     G-vector sticks info
     --------------------
     sticks:   dense  smooth     PW     G-vecs:    dense   smooth      PW
     Sum         439     439    151                 6183     6183    1139



     bravais-lattice index     =            2
     lattice parameter (alat)  =       6.5500  a.u.
     unit-cell volume          =      70.2528 (a.u.)^3
     number of atoms/cell      =            2
     number of atomic types    =            1
     number of electrons       =         8.00
     number of Kohn-Sham states=            4
     kinetic-energy cutoff     =      75.0000  Ry
     charge density cutoff     =     300.0000  Ry
     convergence threshold     =      1.0E-08
     mixing beta               =       0.7000
     number of iterations used =            8  plain     mixing
     Exchange-correlation= PBE
                           (   1   4   3   4   0   0   0)

     celldm(1)=   6.550000  celldm(2)=   0.000000  celldm(3)=   0.000000
     celldm(4)=   0.000000  celldm(5)=   0.000000  celldm(6)=   0.000000

     crystal axes: (cart. coord. in units of alat)
               a(1) = (  -0.500000   0.000000   0.500000 )  
               a(2) = (   0.000000   0.500000   0.500000 )  
               a(3) = (  -0.500000   0.500000   0.000000 )  

     reciprocal axes: (cart. coord. in units 2 pi/alat)
               b(1) = ( -1.000000 -1.000000  1.000000 )  
               b(2) = (  1.000000  1.000000  1.000000 )  
               b(3) = ( -1.000000  1.000000 -1.000000 )  


     PseudoPot. # 1 for C  read from file:
     ./C.UPF
     MD5 check sum: ead9220225bd72a2f9a48cc2a638047d
     Pseudo is Norm-conserving + core correction, Zval =  4.0
     Generated using ONCVPSP code by D. R. Hamann
     Using radial grid of 1248 points,  4 beta functions with: 
                l(1) =   0
                l(2) =   0
                l(3) =   1
                l(4) =   1

     atomic species   valence    mass     pseudopotential
        C              4.00    12.01070     C ( 1.00)

     48 Sym. Ops., with inversion, found (24 have fractional translation)



   Cartesian axes

     site n.     atom                  positions (alat units)
         1           C   tau(   1) = (   0.0000000   0.0000000   0.0000000  )
         2           C   tau(   2) = (  -0.2500000   0.2500000   0.2500000  )

     number of k points=    10
                       cart. coord. in units 2pi/alat
        k(    1) = (  -0.1250000   0.1250000   0.1250000), wk =   0.0625000
        k(    2) = (  -0.3750000   0.3750000  -0.1250000), wk =   0.1875000
        k(    3) = (   0.3750000  -0.3750000   0.6250000), wk =   0.1875000
        k(    4) = (   0.1250000  -0.1250000   0.3750000), wk =   0.1875000
        k(    5) = (  -0.1250000   0.6250000   0.1250000), wk =   0.1875000
        k(    6) = (   0.6250000  -0.1250000   0.8750000), wk =   0.3750000
        k(    7) = (   0.3750000   0.1250000   0.6250000), wk =   0.3750000
        k(    8) = (  -0.1250000  -0.8750000   0.1250000), wk =   0.1875000
        k(    9) = (  -0.3750000   0.3750000   0.3750000), wk =   0.0625000
        k(   10) = (   0.3750000  -0.3750000   1.1250000), wk =   0.1875000

     Dense  grid:     6183 G-vectors     FFT dimensions: (  32,  32,  32)

     Estimated max dynamical RAM per process >       6.12 MB

     Initial potential from superposition of free atoms

     starting charge    7.99991, renormalised to    8.00000
     Starting wfcs are    8 randomized atomic wfcs

     total cpu time spent up to now is        0.2 secs

     Self-consistent Calculation

     iteration #  1     ecut=    75.00 Ry     beta= 0.70
     Davidson diagonalization with overlap
     ethr =  1.00E-02,  avg # of iterations =  2.0

     total cpu time spent up to now is        0.2 secs

     total energy              =     -24.05626850 Ry
     estimated scf accuracy    <       0.13120024 Ry

     iteration #  2     ecut=    75.00 Ry     beta= 0.70
     Davidson diagonalization with overlap
     ethr =  1.64E-03,  avg # of iterations =  1.2

     total cpu time spent up to now is        0.3 secs

     total energy              =     -24.06380110 Ry
     estimated scf accuracy    <       0.00421043 Ry

     iteration #  3     ecut=    75.00 Ry     beta= 0.70
     Davidson diagonalization with overlap
     ethr =  5.26E-05,  avg # of iterations =  2.8

     total cpu time spent up to now is        0.4 secs

     total energy              =     -24.06555858 Ry
     estimated scf accuracy    <       0.00009196 Ry

     iteration #  4     ecut=    75.00 Ry     beta= 0.70
     Davidson diagonalization with overlap
     ethr =  1.15E-06,  avg # of iterations =  5.1

     total cpu time spent up to now is        0.5 secs

     total energy              =     -24.06566471 Ry
     estimated scf accuracy    <       0.00001336 Ry

     iteration #  5     ecut=    75.00 Ry     beta= 0.70
     Davidson diagonalization with overlap
     ethr =  1.67E-07,  avg # of iterations =  2.7

     total cpu time spent up to now is        0.6 secs

     total energy              =     -24.06566848 Ry
     estimated scf accuracy    <       0.00000143 Ry

     iteration #  6     ecut=    75.00 Ry     beta= 0.70
     Davidson diagonalization with overlap
     ethr =  1.78E-08,  avg # of iterations =  2.4

     total cpu time spent up to now is        0.7 secs

     total energy              =     -24.06566878 Ry
     estimated scf accuracy    <       0.00000001 Ry

     iteration #  7     ecut=    75.00 Ry     beta= 0.70
     Davidson diagonalization with overlap
     ethr =  1.47E-10,  avg # of iterations =  5.6

     total cpu time spent up to now is        0.8 secs

     End of self-consistent calculation

          k =-0.1250 0.1250 0.1250 (   773 PWs)   bands (ev):

    -7.2588  12.3820  14.2498  14.2498

          k =-0.3750 0.3750-0.1250 (   776 PWs)   bands (ev):

    -4.8527   6.7062  10.2638  12.9664

          k = 0.3750-0.3750 0.6250 (   773 PWs)   bands (ev):

    -1.5567   1.5316  10.5237  11.1259

          k = 0.1250-0.1250 0.3750 (   781 PWs)   bands (ev):

    -6.0468   9.5464  11.8166  12.8297

          k =-0.1250 0.6250 0.1250 (   775 PWs)   bands (ev):

    -3.6667   7.0499   9.3704   9.6726

          k = 0.6250-0.1250 0.8750 (   762 PWs)   bands (ev):

     0.6014   3.2000   5.8751   8.0383

          k = 0.3750 0.1250 0.6250 (   770 PWs)   bands (ev):

    -2.5332   4.5097   8.2412  10.5301

          k =-0.1250-0.8750 0.1250 (   763 PWs)   bands (ev):

    -0.2494   3.8121   6.9663   8.5156

          k =-0.3750 0.3750 0.3750 (   769 PWs)   bands (ev):

    -3.6877   3.5933  12.2154  12.2154

          k = 0.3750-0.3750 1.1250 (   769 PWs)   bands (ev):

    -0.4943   2.6082   6.6687  10.3846

     highest occupied level (ev):    14.2498

!    total energy              =     -24.06566882 Ry
     estimated scf accuracy    <          1.1E-09 Ry

     The total energy is the sum of the following terms:
     one-electron contribution =       9.23742400 Ry
     hartree contribution      =       1.84549685 Ry
     xc contribution           =      -8.83140839 Ry
     ewald contribution        =     -26.31718129 Ry

     convergence has been achieved in   7 iterations

     Writing output data file ./tmp/diamond.save/

     init_run     :      0.46s CPU      0.11s WALL (       1 calls)
     electrons    :      6.16s CPU      0.67s WALL (       1 calls)

     Called by init_run:
     wfcinit      :      0.35s CPU      0.05s WALL (       1 calls)
     potinit      :      0.02s CPU      0.01s WALL (       1 calls)
     hinit0       :      0.08s CPU      0.04s WALL (       1 calls)

     Called by electrons:
     c_bands      :      4.97s CPU      0.51s WALL (       7 calls)
     sum_band     :      0.71s CPU      0.07s WALL (       7 calls)
     v_of_rho     :      0.42s CPU      0.09s WALL (       8 calls)
     mix_rho      :      0.08s CPU      0.01s WALL (       7 calls)

     Called by c_bands:
     init_us_2    :      0.08s CPU      0.01s WALL (     150 calls)
     cegterg      :      4.81s CPU      0.49s WALL (      70 calls)

     Called by *egterg:
     cdiaghg      :      0.05s CPU      0.01s WALL (     288 calls)
     h_psi        :      4.85s CPU      0.50s WALL (     298 calls)
     g_psi        :      0.01s CPU      0.00s WALL (     218 calls)

     Called by h_psi:
     h_psi:calbec :      0.35s CPU      0.04s WALL (     298 calls)
     vloc_psi     :      4.20s CPU      0.43s WALL (     298 calls)
     add_vuspsi   :      0.30s CPU      0.03s WALL (     298 calls)

     General routines
     calbec       :      0.33s CPU      0.03s WALL (     298 calls)
     fft          :      0.18s CPU      0.04s WALL (      80 calls)
     ffts         :      0.01s CPU      0.00s WALL (       7 calls)
     fftw         :      4.06s CPU      0.41s WALL (    2356 calls)

     Parallel routines

     PWSCF        :      6.75s CPU      0.85s WALL


   This run was terminated on:  23:37:51  19Dec2023            

=------------------------------------------------------------------------------=
   JOB DONE.
=------------------------------------------------------------------------------=
