
     Program PWSCF v.6.6 starts on  5Jan2024 at 15:13:42 

     This program is part of the open-source Quantum ESPRESSO suite
     for quantum simulation of materials; please cite
         "P. Giannozzi et al., J. Phys.:Condens. Matter 21 395502 (2009);
         "P. Giannozzi et al., J. Phys.:Condens. Matter 29 465901 (2017);
          URL http://www.quantum-espresso.org", 
     in publications or presentations arising from this work. More details at
     http://www.quantum-espresso.org/quote

     Parallel version (MPI), running on     1 processors

     MPI processes distributed on     1 nodes
     Fft bands division:     nmany     =       1
     Reading input from lattice-in_6.58.in

     Current dimensions of program PWSCF are:
     Max number of different atomic species (ntypx) = 10
     Max number of k-points (npk) =  40000
     Max angular momentum in pseudopotentials (lmaxx) =  3

     Subspace diagonalization in iterative solution of the eigenvalue problem:
     a serial algorithm will be used


     G-vector sticks info
     --------------------
     sticks:   dense  smooth     PW     G-vecs:    dense   smooth      PW
     Sum         439     439    151                 6231     6231    1139



     bravais-lattice index     =            2
     lattice parameter (alat)  =       6.5800  a.u.
     unit-cell volume          =      71.2226 (a.u.)^3
     number of atoms/cell      =            2
     number of atomic types    =            1
     number of electrons       =         8.00
     number of Kohn-Sham states=            4
     kinetic-energy cutoff     =      75.0000  Ry
     charge density cutoff     =     300.0000  Ry
     convergence threshold     =      1.0E-08
     mixing beta               =       0.7000
     number of iterations used =            8  plain     mixing
     Exchange-correlation= PBE
                           (   1   4   3   4   0   0   0)

     celldm(1)=   6.580000  celldm(2)=   0.000000  celldm(3)=   0.000000
     celldm(4)=   0.000000  celldm(5)=   0.000000  celldm(6)=   0.000000

     crystal axes: (cart. coord. in units of alat)
               a(1) = (  -0.500000   0.000000   0.500000 )  
               a(2) = (   0.000000   0.500000   0.500000 )  
               a(3) = (  -0.500000   0.500000   0.000000 )  

     reciprocal axes: (cart. coord. in units 2 pi/alat)
               b(1) = ( -1.000000 -1.000000  1.000000 )  
               b(2) = (  1.000000  1.000000  1.000000 )  
               b(3) = ( -1.000000  1.000000 -1.000000 )  


     PseudoPot. # 1 for C  read from file:
     ./C.UPF
     MD5 check sum: ead9220225bd72a2f9a48cc2a638047d
     Pseudo is Norm-conserving + core correction, Zval =  4.0
     Generated using ONCVPSP code by D. R. Hamann
     Using radial grid of 1248 points,  4 beta functions with: 
                l(1) =   0
                l(2) =   0
                l(3) =   1
                l(4) =   1

     atomic species   valence    mass     pseudopotential
        C              4.00    12.01070     C ( 1.00)

     48 Sym. Ops., with inversion, found (24 have fractional translation)



   Cartesian axes

     site n.     atom                  positions (alat units)
         1           C   tau(   1) = (   0.0000000   0.0000000   0.0000000  )
         2           C   tau(   2) = (  -0.2500000   0.2500000   0.2500000  )

     number of k points=    10
                       cart. coord. in units 2pi/alat
        k(    1) = (  -0.1250000   0.1250000   0.1250000), wk =   0.0625000
        k(    2) = (  -0.3750000   0.3750000  -0.1250000), wk =   0.1875000
        k(    3) = (   0.3750000  -0.3750000   0.6250000), wk =   0.1875000
        k(    4) = (   0.1250000  -0.1250000   0.3750000), wk =   0.1875000
        k(    5) = (  -0.1250000   0.6250000   0.1250000), wk =   0.1875000
        k(    6) = (   0.6250000  -0.1250000   0.8750000), wk =   0.3750000
        k(    7) = (   0.3750000   0.1250000   0.6250000), wk =   0.3750000
        k(    8) = (  -0.1250000  -0.8750000   0.1250000), wk =   0.1875000
        k(    9) = (  -0.3750000   0.3750000   0.3750000), wk =   0.0625000
        k(   10) = (   0.3750000  -0.3750000   1.1250000), wk =   0.1875000

     Dense  grid:     6231 G-vectors     FFT dimensions: (  32,  32,  32)

     Estimated max dynamical RAM per process >       6.15 MB

     Initial potential from superposition of free atoms

     starting charge    7.99991, renormalised to    8.00000
     Starting wfcs are    8 randomized atomic wfcs

     total cpu time spent up to now is        0.2 secs

     Self-consistent Calculation

     iteration #  1     ecut=    75.00 Ry     beta= 0.70
     Davidson diagonalization with overlap
     ethr =  1.00E-02,  avg # of iterations =  2.0

     total cpu time spent up to now is        0.3 secs

     total energy              =     -24.05912948 Ry
     estimated scf accuracy    <       0.12764555 Ry

     iteration #  2     ecut=    75.00 Ry     beta= 0.70
     Davidson diagonalization with overlap
     ethr =  1.60E-03,  avg # of iterations =  1.3

     total cpu time spent up to now is        0.4 secs

     total energy              =     -24.06670713 Ry
     estimated scf accuracy    <       0.00407509 Ry

     iteration #  3     ecut=    75.00 Ry     beta= 0.70
     Davidson diagonalization with overlap
     ethr =  5.09E-05,  avg # of iterations =  3.0

     total cpu time spent up to now is        1.0 secs

     total energy              =     -24.06836209 Ry
     estimated scf accuracy    <       0.00009282 Ry

     iteration #  4     ecut=    75.00 Ry     beta= 0.70
     Davidson diagonalization with overlap
     ethr =  1.16E-06,  avg # of iterations =  4.9

     total cpu time spent up to now is        1.3 secs

     total energy              =     -24.06846017 Ry
     estimated scf accuracy    <       0.00001486 Ry

     iteration #  5     ecut=    75.00 Ry     beta= 0.70
     Davidson diagonalization with overlap
     ethr =  1.86E-07,  avg # of iterations =  2.3

     total cpu time spent up to now is        1.3 secs

     total energy              =     -24.06846401 Ry
     estimated scf accuracy    <       0.00000079 Ry

     iteration #  6     ecut=    75.00 Ry     beta= 0.70
     Davidson diagonalization with overlap
     ethr =  9.87E-09,  avg # of iterations =  3.4

     total cpu time spent up to now is        1.4 secs

     End of self-consistent calculation

          k =-0.1250 0.1250 0.1250 (   785 PWs)   bands (ev):

    -7.3314  12.1464  13.9964  13.9964

          k =-0.3750 0.3750-0.1250 (   787 PWs)   bands (ev):

    -4.9482   6.5230  10.0543  12.7277

          k = 0.3750-0.3750 0.6250 (   785 PWs)   bands (ev):

    -1.6965   1.4100  10.3064  10.9123

          k = 0.1250-0.1250 0.3750 (   792 PWs)   bands (ev):

    -6.1306   9.3369  11.5970  12.5826

          k =-0.1250 0.6250 0.1250 (   784 PWs)   bands (ev):

    -3.7734   6.8516   9.1656   9.4794

          k = 0.6250-0.1250 0.8750 (   772 PWs)   bands (ev):

     0.4416   3.0340   5.7198   7.8679

          k = 0.3750 0.1250 0.6250 (   783 PWs)   bands (ev):

    -2.6530   4.3450   8.0487  10.3230

          k =-0.1250-0.8750 0.1250 (   773 PWs)   bands (ev):

    -0.3910   3.6263   6.8082   8.3360

          k =-0.3750 0.3750 0.3750 (   775 PWs)   bands (ev):

    -3.7962   3.4425  11.9868  11.9868

          k = 0.3750-0.3750 1.1250 (   780 PWs)   bands (ev):

    -0.6443   2.4697   6.4935  10.1810

     highest occupied level (ev):    13.9964

!    total energy              =     -24.06846434 Ry
     estimated scf accuracy    <          7.8E-09 Ry

     The total energy is the sum of the following terms:
     one-electron contribution =       9.07648750 Ry
     hartree contribution      =       1.85899026 Ry
     xc contribution           =      -8.80674796 Ry
     ewald contribution        =     -26.19719414 Ry

     convergence has been achieved in   6 iterations

     Writing output data file ./tmp/diamond.save/

     init_run     :      0.37s CPU      0.09s WALL (       1 calls)
     electrons    :      9.73s CPU      1.28s WALL (       1 calls)

     Called by init_run:
     wfcinit      :      0.27s CPU      0.04s WALL (       1 calls)
     potinit      :      0.02s CPU      0.01s WALL (       1 calls)
     hinit0       :      0.07s CPU      0.04s WALL (       1 calls)

     Called by electrons:
     c_bands      :      9.14s CPU      1.16s WALL (       6 calls)
     sum_band     :      0.46s CPU      0.06s WALL (       6 calls)
     v_of_rho     :      0.13s CPU      0.07s WALL (       7 calls)
     mix_rho      :      0.01s CPU      0.00s WALL (       6 calls)

     Called by c_bands:
     init_us_2    :      0.08s CPU      0.01s WALL (     130 calls)
     cegterg      :      9.00s CPU      1.14s WALL (      60 calls)

     Called by *egterg:
     cdiaghg      :      0.06s CPU      0.01s WALL (     229 calls)
     h_psi        :      8.85s CPU      1.13s WALL (     239 calls)
     g_psi        :      0.02s CPU      0.00s WALL (     169 calls)

     Called by h_psi:
     h_psi:calbec :      4.01s CPU      0.51s WALL (     239 calls)
     vloc_psi     :      2.51s CPU      0.31s WALL (     239 calls)
     add_vuspsi   :      2.30s CPU      0.31s WALL (     239 calls)

     General routines
     calbec       :      4.01s CPU      0.51s WALL (     239 calls)
     fft          :      0.06s CPU      0.03s WALL (      70 calls)
     ffts         :      0.01s CPU      0.00s WALL (       6 calls)
     fftw         :      2.45s CPU      0.30s WALL (    1936 calls)

     Parallel routines

     PWSCF        :     10.25s CPU      1.45s WALL


   This run was terminated on:  15:13:43   5Jan2024            

=------------------------------------------------------------------------------=
   JOB DONE.
=------------------------------------------------------------------------------=
