
     Program PWSCF v.6.6 starts on  5Jan2024 at 15:13:55 

     This program is part of the open-source Quantum ESPRESSO suite
     for quantum simulation of materials; please cite
         "P. Giannozzi et al., J. Phys.:Condens. Matter 21 395502 (2009);
         "P. Giannozzi et al., J. Phys.:Condens. Matter 29 465901 (2017);
          URL http://www.quantum-espresso.org", 
     in publications or presentations arising from this work. More details at
     http://www.quantum-espresso.org/quote

     Parallel version (MPI), running on     1 processors

     MPI processes distributed on     1 nodes
     Fft bands division:     nmany     =       1
     Reading input from lattice-in_6.68.in

     Current dimensions of program PWSCF are:
     Max number of different atomic species (ntypx) = 10
     Max number of k-points (npk) =  40000
     Max angular momentum in pseudopotentials (lmaxx) =  3

     Subspace diagonalization in iterative solution of the eigenvalue problem:
     a serial algorithm will be used


     G-vector sticks info
     --------------------
     sticks:   dense  smooth     PW     G-vecs:    dense   smooth      PW
     Sum         463     463    151                 6567     6567    1243



     bravais-lattice index     =            2
     lattice parameter (alat)  =       6.6800  a.u.
     unit-cell volume          =      74.5194 (a.u.)^3
     number of atoms/cell      =            2
     number of atomic types    =            1
     number of electrons       =         8.00
     number of Kohn-Sham states=            4
     kinetic-energy cutoff     =      75.0000  Ry
     charge density cutoff     =     300.0000  Ry
     convergence threshold     =      1.0E-08
     mixing beta               =       0.7000
     number of iterations used =            8  plain     mixing
     Exchange-correlation= PBE
                           (   1   4   3   4   0   0   0)

     celldm(1)=   6.680000  celldm(2)=   0.000000  celldm(3)=   0.000000
     celldm(4)=   0.000000  celldm(5)=   0.000000  celldm(6)=   0.000000

     crystal axes: (cart. coord. in units of alat)
               a(1) = (  -0.500000   0.000000   0.500000 )  
               a(2) = (   0.000000   0.500000   0.500000 )  
               a(3) = (  -0.500000   0.500000   0.000000 )  

     reciprocal axes: (cart. coord. in units 2 pi/alat)
               b(1) = ( -1.000000 -1.000000  1.000000 )  
               b(2) = (  1.000000  1.000000  1.000000 )  
               b(3) = ( -1.000000  1.000000 -1.000000 )  


     PseudoPot. # 1 for C  read from file:
     ./C.UPF
     MD5 check sum: ead9220225bd72a2f9a48cc2a638047d
     Pseudo is Norm-conserving + core correction, Zval =  4.0
     Generated using ONCVPSP code by D. R. Hamann
     Using radial grid of 1248 points,  4 beta functions with: 
                l(1) =   0
                l(2) =   0
                l(3) =   1
                l(4) =   1

     atomic species   valence    mass     pseudopotential
        C              4.00    12.01070     C ( 1.00)

     48 Sym. Ops., with inversion, found (24 have fractional translation)



   Cartesian axes

     site n.     atom                  positions (alat units)
         1           C   tau(   1) = (   0.0000000   0.0000000   0.0000000  )
         2           C   tau(   2) = (  -0.2500000   0.2500000   0.2500000  )

     number of k points=    10
                       cart. coord. in units 2pi/alat
        k(    1) = (  -0.1250000   0.1250000   0.1250000), wk =   0.0625000
        k(    2) = (  -0.3750000   0.3750000  -0.1250000), wk =   0.1875000
        k(    3) = (   0.3750000  -0.3750000   0.6250000), wk =   0.1875000
        k(    4) = (   0.1250000  -0.1250000   0.3750000), wk =   0.1875000
        k(    5) = (  -0.1250000   0.6250000   0.1250000), wk =   0.1875000
        k(    6) = (   0.6250000  -0.1250000   0.8750000), wk =   0.3750000
        k(    7) = (   0.3750000   0.1250000   0.6250000), wk =   0.3750000
        k(    8) = (  -0.1250000  -0.8750000   0.1250000), wk =   0.1875000
        k(    9) = (  -0.3750000   0.3750000   0.3750000), wk =   0.0625000
        k(   10) = (   0.3750000  -0.3750000   1.1250000), wk =   0.1875000

     Dense  grid:     6567 G-vectors     FFT dimensions: (  32,  32,  32)

     Estimated max dynamical RAM per process >       6.33 MB

     Initial potential from superposition of free atoms

     starting charge    7.99991, renormalised to    8.00000
     Starting wfcs are    8 randomized atomic wfcs

     total cpu time spent up to now is        0.2 secs

     Self-consistent Calculation

     iteration #  1     ecut=    75.00 Ry     beta= 0.70
     Davidson diagonalization with overlap
     ethr =  1.00E-02,  avg # of iterations =  2.0

     total cpu time spent up to now is        0.3 secs

     total energy              =     -24.06600252 Ry
     estimated scf accuracy    <       0.11478405 Ry

     iteration #  2     ecut=    75.00 Ry     beta= 0.70
     Davidson diagonalization with overlap
     ethr =  1.43E-03,  avg # of iterations =  1.3

     total cpu time spent up to now is        0.4 secs

     total energy              =     -24.07268133 Ry
     estimated scf accuracy    <       0.00388232 Ry

     iteration #  3     ecut=    75.00 Ry     beta= 0.70
     Davidson diagonalization with overlap
     ethr =  4.85E-05,  avg # of iterations =  2.8

     total cpu time spent up to now is        0.8 secs

     total energy              =     -24.07420604 Ry
     estimated scf accuracy    <       0.00008781 Ry

     iteration #  4     ecut=    75.00 Ry     beta= 0.70
     Davidson diagonalization with overlap
     ethr =  1.10E-06,  avg # of iterations =  5.4

     total cpu time spent up to now is        1.0 secs

     total energy              =     -24.07430814 Ry
     estimated scf accuracy    <       0.00001384 Ry

     iteration #  5     ecut=    75.00 Ry     beta= 0.70
     Davidson diagonalization with overlap
     ethr =  1.73E-07,  avg # of iterations =  2.5

     total cpu time spent up to now is        1.2 secs

     total energy              =     -24.07431116 Ry
     estimated scf accuracy    <       0.00000084 Ry

     iteration #  6     ecut=    75.00 Ry     beta= 0.70
     Davidson diagonalization with overlap
     ethr =  1.05E-08,  avg # of iterations =  3.3

     total cpu time spent up to now is        1.2 secs

     total energy              =     -24.07431138 Ry
     estimated scf accuracy    <       0.00000001 Ry

     iteration #  7     ecut=    75.00 Ry     beta= 0.70
     Davidson diagonalization with overlap
     ethr =  1.79E-10,  avg # of iterations =  4.5

     total cpu time spent up to now is        1.4 secs

     End of self-consistent calculation

          k =-0.1250 0.1250 0.1250 (   830 PWs)   bands (ev):

    -7.5648  11.3846  13.1777  13.1777

          k =-0.3750 0.3750-0.1250 (   820 PWs)   bands (ev):

    -5.2565   5.9300   9.3776  11.9571

          k = 0.3750-0.3750 0.6250 (   817 PWs)   bands (ev):

    -2.1493   1.0182   9.6047  10.2218

          k = 0.1250-0.1250 0.3750 (   824 PWs)   bands (ev):

    -6.4007   8.6588  10.8872  11.7845

          k =-0.1250 0.6250 0.1250 (   821 PWs)   bands (ev):

    -4.1180   6.2072   8.5068   8.8550

          k = 0.6250-0.1250 0.8750 (   812 PWs)   bands (ev):

    -0.0755   2.4935   5.2216   7.3171

          k = 0.3750 0.1250 0.6250 (   815 PWs)   bands (ev):

    -3.0408   3.8114   7.4282   9.6542

          k =-0.1250-0.8750 0.1250 (   808 PWs)   bands (ev):

    -0.8495   3.0250   6.2978   7.7557

          k =-0.3750 0.3750 0.3750 (   820 PWs)   bands (ev):

    -4.1473   2.9559  11.2475  11.2475

          k = 0.3750-0.3750 1.1250 (   817 PWs)   bands (ev):

    -1.1301   2.0203   5.9299   9.5228

     highest occupied level (ev):    13.1777

!    total energy              =     -24.07431139 Ry
     estimated scf accuracy    <          6.4E-10 Ry

     The total energy is the sum of the following terms:
     one-electron contribution =       8.55307158 Ry
     hartree contribution      =       1.90437967 Ry
     xc contribution           =      -8.72674208 Ry
     ewald contribution        =     -25.80502057 Ry

     convergence has been achieved in   7 iterations

     Writing output data file ./tmp/diamond.save/

     init_run     :      0.47s CPU      0.11s WALL (       1 calls)
     electrons    :      9.39s CPU      1.20s WALL (       1 calls)

     Called by init_run:
     wfcinit      :      0.38s CPU      0.06s WALL (       1 calls)
     potinit      :      0.02s CPU      0.01s WALL (       1 calls)
     hinit0       :      0.06s CPU      0.04s WALL (       1 calls)

     Called by electrons:
     c_bands      :      8.85s CPU      1.04s WALL (       7 calls)
     sum_band     :      0.40s CPU      0.08s WALL (       7 calls)
     v_of_rho     :      0.14s CPU      0.08s WALL (       8 calls)
     mix_rho      :      0.01s CPU      0.00s WALL (       7 calls)

     Called by c_bands:
     init_us_2    :      0.12s CPU      0.02s WALL (     150 calls)
     cegterg      :      8.62s CPU      1.01s WALL (      70 calls)

     Called by *egterg:
     cdiaghg      :      0.09s CPU      0.01s WALL (     288 calls)
     h_psi        :      8.68s CPU      1.03s WALL (     298 calls)
     g_psi        :      0.02s CPU      0.00s WALL (     218 calls)

     Called by h_psi:
     h_psi:calbec :      3.70s CPU      0.42s WALL (     298 calls)
     vloc_psi     :      3.33s CPU      0.41s WALL (     298 calls)
     add_vuspsi   :      1.63s CPU      0.19s WALL (     298 calls)

     General routines
     calbec       :      3.69s CPU      0.42s WALL (     298 calls)
     fft          :      0.06s CPU      0.03s WALL (      80 calls)
     ffts         :      0.01s CPU      0.01s WALL (       7 calls)
     fftw         :      3.05s CPU      0.38s WALL (    2276 calls)

     Parallel routines

     PWSCF        :      9.97s CPU      1.37s WALL


   This run was terminated on:  15:13:57   5Jan2024            

=------------------------------------------------------------------------------=
   JOB DONE.
=------------------------------------------------------------------------------=
