
     Program PWSCF v.6.6 starts on 19Dec2023 at 23:38:12 

     This program is part of the open-source Quantum ESPRESSO suite
     for quantum simulation of materials; please cite
         "P. Giannozzi et al., J. Phys.:Condens. Matter 21 395502 (2009);
         "P. Giannozzi et al., J. Phys.:Condens. Matter 29 465901 (2017);
          URL http://www.quantum-espresso.org", 
     in publications or presentations arising from this work. More details at
     http://www.quantum-espresso.org/quote

     Parallel version (MPI), running on     1 processors

     MPI processes distributed on     1 nodes
     Fft bands division:     nmany     =       1
     Reading input from lattice-in_6.79.in

     Current dimensions of program PWSCF are:
     Max number of different atomic species (ntypx) = 10
     Max number of k-points (npk) =  40000
     Max angular momentum in pseudopotentials (lmaxx) =  3

     Subspace diagonalization in iterative solution of the eigenvalue problem:
     a serial algorithm will be used


     G-vector sticks info
     --------------------
     sticks:   dense  smooth     PW     G-vecs:    dense   smooth      PW
     Sum         475     475    151                 6855     6855    1243



     bravais-lattice index     =            2
     lattice parameter (alat)  =       6.7900  a.u.
     unit-cell volume          =      78.2617 (a.u.)^3
     number of atoms/cell      =            2
     number of atomic types    =            1
     number of electrons       =         8.00
     number of Kohn-Sham states=            4
     kinetic-energy cutoff     =      75.0000  Ry
     charge density cutoff     =     300.0000  Ry
     convergence threshold     =      1.0E-08
     mixing beta               =       0.7000
     number of iterations used =            8  plain     mixing
     Exchange-correlation= PBE
                           (   1   4   3   4   0   0   0)

     celldm(1)=   6.790000  celldm(2)=   0.000000  celldm(3)=   0.000000
     celldm(4)=   0.000000  celldm(5)=   0.000000  celldm(6)=   0.000000

     crystal axes: (cart. coord. in units of alat)
               a(1) = (  -0.500000   0.000000   0.500000 )  
               a(2) = (   0.000000   0.500000   0.500000 )  
               a(3) = (  -0.500000   0.500000   0.000000 )  

     reciprocal axes: (cart. coord. in units 2 pi/alat)
               b(1) = ( -1.000000 -1.000000  1.000000 )  
               b(2) = (  1.000000  1.000000  1.000000 )  
               b(3) = ( -1.000000  1.000000 -1.000000 )  


     PseudoPot. # 1 for C  read from file:
     ./C.UPF
     MD5 check sum: ead9220225bd72a2f9a48cc2a638047d
     Pseudo is Norm-conserving + core correction, Zval =  4.0
     Generated using ONCVPSP code by D. R. Hamann
     Using radial grid of 1248 points,  4 beta functions with: 
                l(1) =   0
                l(2) =   0
                l(3) =   1
                l(4) =   1

     atomic species   valence    mass     pseudopotential
        C              4.00    12.01070     C ( 1.00)

     48 Sym. Ops., with inversion, found (24 have fractional translation)



   Cartesian axes

     site n.     atom                  positions (alat units)
         1           C   tau(   1) = (   0.0000000   0.0000000   0.0000000  )
         2           C   tau(   2) = (  -0.2500000   0.2500000   0.2500000  )

     number of k points=    10
                       cart. coord. in units 2pi/alat
        k(    1) = (  -0.1250000   0.1250000   0.1250000), wk =   0.0625000
        k(    2) = (  -0.3750000   0.3750000  -0.1250000), wk =   0.1875000
        k(    3) = (   0.3750000  -0.3750000   0.6250000), wk =   0.1875000
        k(    4) = (   0.1250000  -0.1250000   0.3750000), wk =   0.1875000
        k(    5) = (  -0.1250000   0.6250000   0.1250000), wk =   0.1875000
        k(    6) = (   0.6250000  -0.1250000   0.8750000), wk =   0.3750000
        k(    7) = (   0.3750000   0.1250000   0.6250000), wk =   0.3750000
        k(    8) = (  -0.1250000  -0.8750000   0.1250000), wk =   0.1875000
        k(    9) = (  -0.3750000   0.3750000   0.3750000), wk =   0.0625000
        k(   10) = (   0.3750000  -0.3750000   1.1250000), wk =   0.1875000

     Dense  grid:     6855 G-vectors     FFT dimensions: (  32,  32,  32)

     Estimated max dynamical RAM per process >       6.50 MB

     Initial potential from superposition of free atoms

     starting charge    7.99991, renormalised to    8.00000
     Starting wfcs are    8 randomized atomic wfcs

     total cpu time spent up to now is        0.2 secs

     Self-consistent Calculation

     iteration #  1     ecut=    75.00 Ry     beta= 0.70
     Davidson diagonalization with overlap
     ethr =  1.00E-02,  avg # of iterations =  2.0

     total cpu time spent up to now is        0.2 secs

     total energy              =     -24.06749056 Ry
     estimated scf accuracy    <       0.10252299 Ry

     iteration #  2     ecut=    75.00 Ry     beta= 0.70
     Davidson diagonalization with overlap
     ethr =  1.28E-03,  avg # of iterations =  1.3

     total cpu time spent up to now is        0.3 secs

     total energy              =     -24.07357970 Ry
     estimated scf accuracy    <       0.00361750 Ry

     iteration #  3     ecut=    75.00 Ry     beta= 0.70
     Davidson diagonalization with overlap
     ethr =  4.52E-05,  avg # of iterations =  2.9

     total cpu time spent up to now is        0.4 secs

     total energy              =     -24.07502567 Ry
     estimated scf accuracy    <       0.00008282 Ry

     iteration #  4     ecut=    75.00 Ry     beta= 0.70
     Davidson diagonalization with overlap
     ethr =  1.04E-06,  avg # of iterations =  5.2

     total cpu time spent up to now is        0.5 secs

     total energy              =     -24.07512977 Ry
     estimated scf accuracy    <       0.00001223 Ry

     iteration #  5     ecut=    75.00 Ry     beta= 0.70
     Davidson diagonalization with overlap
     ethr =  1.53E-07,  avg # of iterations =  2.6

     total cpu time spent up to now is        0.7 secs

     total energy              =     -24.07513319 Ry
     estimated scf accuracy    <       0.00000079 Ry

     iteration #  6     ecut=    75.00 Ry     beta= 0.70
     Davidson diagonalization with overlap
     ethr =  9.92E-09,  avg # of iterations =  3.3

     total cpu time spent up to now is        0.7 secs

     total energy              =     -24.07513352 Ry
     estimated scf accuracy    <       0.00000001 Ry

     iteration #  7     ecut=    75.00 Ry     beta= 0.70
     Davidson diagonalization with overlap
     ethr =  1.39E-10,  avg # of iterations =  5.1

     total cpu time spent up to now is        0.9 secs

     End of self-consistent calculation

          k =-0.1250 0.1250 0.1250 (   881 PWs)   bands (ev):

    -7.8056  10.5871  12.3243  12.3243

          k =-0.3750 0.3750-0.1250 (   863 PWs)   bands (ev):

    -5.5773   5.3096   8.6724  11.1536

          k = 0.3750-0.3750 0.6250 (   854 PWs)   bands (ev):

    -2.6227   0.6104   8.8733   9.5016

          k = 0.1250-0.1250 0.3750 (   864 PWs)   bands (ev):

    -6.6807   7.9482  10.1467  10.9534

          k =-0.1250 0.6250 0.1250 (   855 PWs)   bands (ev):

    -4.4774   5.5283   7.8248   8.2037

          k = 0.6250-0.1250 0.8750 (   857 PWs)   bands (ev):

    -0.6163   1.9234   4.7087   6.7428

          k = 0.3750 0.1250 0.6250 (   859 PWs)   bands (ev):

    -3.4465   3.2520   6.7835   8.9575

          k =-0.1250-0.8750 0.1250 (   854 PWs)   bands (ev):

    -1.3294   2.3962   5.7659   7.1506

          k =-0.3750 0.3750 0.3750 (   857 PWs)   bands (ev):

    -4.5140   2.4493  10.4774  10.4774

          k = 0.3750-0.3750 1.1250 (   852 PWs)   bands (ev):

    -1.6381   1.5477   5.3466   8.8367

     highest occupied level (ev):    12.3243

!    total energy              =     -24.07513354 Ry
     estimated scf accuracy    <          6.4E-10 Ry

     The total energy is the sum of the following terms:
     one-electron contribution =       7.99945361 Ry
     hartree contribution      =       1.95475640 Ry
     xc contribution           =      -8.64237192 Ry
     ewald contribution        =     -25.38697164 Ry

     convergence has been achieved in   7 iterations

     Writing output data file ./tmp/diamond.save/

     init_run     :      0.55s CPU      0.10s WALL (       1 calls)
     electrons    :      6.17s CPU      0.71s WALL (       1 calls)

     Called by init_run:
     wfcinit      :      0.45s CPU      0.05s WALL (       1 calls)
     potinit      :      0.02s CPU      0.01s WALL (       1 calls)
     hinit0       :      0.07s CPU      0.04s WALL (       1 calls)

     Called by electrons:
     c_bands      :      5.01s CPU      0.53s WALL (       7 calls)
     sum_band     :      0.80s CPU      0.08s WALL (       7 calls)
     v_of_rho     :      0.37s CPU      0.10s WALL (       8 calls)
     mix_rho      :      0.01s CPU      0.01s WALL (       7 calls)

     Called by c_bands:
     init_us_2    :      0.23s CPU      0.01s WALL (     150 calls)
     cegterg      :      4.76s CPU      0.51s WALL (      70 calls)

     Called by *egterg:
     cdiaghg      :      0.04s CPU      0.01s WALL (     294 calls)
     h_psi        :      4.83s CPU      0.52s WALL (     304 calls)
     g_psi        :      0.03s CPU      0.00s WALL (     224 calls)

     Called by h_psi:
     h_psi:calbec :      0.41s CPU      0.04s WALL (     304 calls)
     vloc_psi     :      3.90s CPU      0.41s WALL (     304 calls)
     add_vuspsi   :      0.50s CPU      0.07s WALL (     304 calls)

     General routines
     calbec       :      0.41s CPU      0.04s WALL (     304 calls)
     fft          :      0.09s CPU      0.04s WALL (      80 calls)
     ffts         :      0.01s CPU      0.00s WALL (       7 calls)
     fftw         :      3.75s CPU      0.39s WALL (    2362 calls)

     Parallel routines

     PWSCF        :      6.85s CPU      0.88s WALL


   This run was terminated on:  23:38:13  19Dec2023            

=------------------------------------------------------------------------------=
   JOB DONE.
=------------------------------------------------------------------------------=
