
     Program PWSCF v.6.6 starts on 19Dec2023 at 23:38:13 

     This program is part of the open-source Quantum ESPRESSO suite
     for quantum simulation of materials; please cite
         "P. Giannozzi et al., J. Phys.:Condens. Matter 21 395502 (2009);
         "P. Giannozzi et al., J. Phys.:Condens. Matter 29 465901 (2017);
          URL http://www.quantum-espresso.org", 
     in publications or presentations arising from this work. More details at
     http://www.quantum-espresso.org/quote

     Parallel version (MPI), running on     1 processors

     MPI processes distributed on     1 nodes
     Fft bands division:     nmany     =       1
     Reading input from lattice-in_6.81.in

     Current dimensions of program PWSCF are:
     Max number of different atomic species (ntypx) = 10
     Max number of k-points (npk) =  40000
     Max angular momentum in pseudopotentials (lmaxx) =  3

     Subspace diagonalization in iterative solution of the eigenvalue problem:
     a serial algorithm will be used


     G-vector sticks info
     --------------------
     sticks:   dense  smooth     PW     G-vecs:    dense   smooth      PW
     Sum         475     475    151                 6879     6879    1243



     bravais-lattice index     =            2
     lattice parameter (alat)  =       6.8100  a.u.
     unit-cell volume          =      78.9553 (a.u.)^3
     number of atoms/cell      =            2
     number of atomic types    =            1
     number of electrons       =         8.00
     number of Kohn-Sham states=            4
     kinetic-energy cutoff     =      75.0000  Ry
     charge density cutoff     =     300.0000  Ry
     convergence threshold     =      1.0E-08
     mixing beta               =       0.7000
     number of iterations used =            8  plain     mixing
     Exchange-correlation= PBE
                           (   1   4   3   4   0   0   0)

     celldm(1)=   6.810000  celldm(2)=   0.000000  celldm(3)=   0.000000
     celldm(4)=   0.000000  celldm(5)=   0.000000  celldm(6)=   0.000000

     crystal axes: (cart. coord. in units of alat)
               a(1) = (  -0.500000   0.000000   0.500000 )  
               a(2) = (   0.000000   0.500000   0.500000 )  
               a(3) = (  -0.500000   0.500000   0.000000 )  

     reciprocal axes: (cart. coord. in units 2 pi/alat)
               b(1) = ( -1.000000 -1.000000  1.000000 )  
               b(2) = (  1.000000  1.000000  1.000000 )  
               b(3) = ( -1.000000  1.000000 -1.000000 )  


     PseudoPot. # 1 for C  read from file:
     ./C.UPF
     MD5 check sum: ead9220225bd72a2f9a48cc2a638047d
     Pseudo is Norm-conserving + core correction, Zval =  4.0
     Generated using ONCVPSP code by D. R. Hamann
     Using radial grid of 1248 points,  4 beta functions with: 
                l(1) =   0
                l(2) =   0
                l(3) =   1
                l(4) =   1

     atomic species   valence    mass     pseudopotential
        C              4.00    12.01070     C ( 1.00)

     48 Sym. Ops., with inversion, found (24 have fractional translation)



   Cartesian axes

     site n.     atom                  positions (alat units)
         1           C   tau(   1) = (   0.0000000   0.0000000   0.0000000  )
         2           C   tau(   2) = (  -0.2500000   0.2500000   0.2500000  )

     number of k points=    10
                       cart. coord. in units 2pi/alat
        k(    1) = (  -0.1250000   0.1250000   0.1250000), wk =   0.0625000
        k(    2) = (  -0.3750000   0.3750000  -0.1250000), wk =   0.1875000
        k(    3) = (   0.3750000  -0.3750000   0.6250000), wk =   0.1875000
        k(    4) = (   0.1250000  -0.1250000   0.3750000), wk =   0.1875000
        k(    5) = (  -0.1250000   0.6250000   0.1250000), wk =   0.1875000
        k(    6) = (   0.6250000  -0.1250000   0.8750000), wk =   0.3750000
        k(    7) = (   0.3750000   0.1250000   0.6250000), wk =   0.3750000
        k(    8) = (  -0.1250000  -0.8750000   0.1250000), wk =   0.1875000
        k(    9) = (  -0.3750000   0.3750000   0.3750000), wk =   0.0625000
        k(   10) = (   0.3750000  -0.3750000   1.1250000), wk =   0.1875000

     Dense  grid:     6879 G-vectors     FFT dimensions: (  32,  32,  32)

     Estimated max dynamical RAM per process >       6.52 MB

     Initial potential from superposition of free atoms

     starting charge    7.99991, renormalised to    8.00000
     Starting wfcs are    8 randomized atomic wfcs

     total cpu time spent up to now is        0.2 secs

     Self-consistent Calculation

     iteration #  1     ecut=    75.00 Ry     beta= 0.70
     Davidson diagonalization with overlap
     ethr =  1.00E-02,  avg # of iterations =  2.0

     total cpu time spent up to now is        0.3 secs

     total energy              =     -24.06722518 Ry
     estimated scf accuracy    <       0.10042283 Ry

     iteration #  2     ecut=    75.00 Ry     beta= 0.70
     Davidson diagonalization with overlap
     ethr =  1.26E-03,  avg # of iterations =  1.3

     total cpu time spent up to now is        0.3 secs

     total energy              =     -24.07316680 Ry
     estimated scf accuracy    <       0.00358205 Ry

     iteration #  3     ecut=    75.00 Ry     beta= 0.70
     Davidson diagonalization with overlap
     ethr =  4.48E-05,  avg # of iterations =  2.9

     total cpu time spent up to now is        0.5 secs

     total energy              =     -24.07459916 Ry
     estimated scf accuracy    <       0.00008220 Ry

     iteration #  4     ecut=    75.00 Ry     beta= 0.70
     Davidson diagonalization with overlap
     ethr =  1.03E-06,  avg # of iterations =  5.2

     total cpu time spent up to now is        0.6 secs

     total energy              =     -24.07470570 Ry
     estimated scf accuracy    <       0.00001188 Ry

     iteration #  5     ecut=    75.00 Ry     beta= 0.70
     Davidson diagonalization with overlap
     ethr =  1.48E-07,  avg # of iterations =  2.7

     total cpu time spent up to now is        0.7 secs

     total energy              =     -24.07470918 Ry
     estimated scf accuracy    <       0.00000096 Ry

     iteration #  6     ecut=    75.00 Ry     beta= 0.70
     Davidson diagonalization with overlap
     ethr =  1.21E-08,  avg # of iterations =  3.3

     total cpu time spent up to now is        0.7 secs

     total energy              =     -24.07470948 Ry
     estimated scf accuracy    <       0.00000001 Ry

     iteration #  7     ecut=    75.00 Ry     beta= 0.70
     Davidson diagonalization with overlap
     ethr =  1.80E-10,  avg # of iterations =  4.9

     total cpu time spent up to now is        0.9 secs

     End of self-consistent calculation

          k =-0.1250 0.1250 0.1250 (   887 PWs)   bands (ev):

    -7.8478  10.4466  12.1741  12.1741

          k =-0.3750 0.3750-0.1250 (   869 PWs)   bands (ev):

    -5.6338   5.2001   8.5482  11.0119

          k = 0.3750-0.3750 0.6250 (   861 PWs)   bands (ev):

    -2.7062   0.5385   8.7445   9.3749

          k = 0.1250-0.1250 0.3750 (   868 PWs)   bands (ev):

    -6.7299   7.8226  10.0163  10.8073

          k =-0.1250 0.6250 0.1250 (   862 PWs)   bands (ev):

    -4.5407   5.4080   7.7052   8.0889

          k = 0.6250-0.1250 0.8750 (   866 PWs)   bands (ev):

    -0.7117   1.8223   4.6190   6.6417

          k = 0.3750 0.1250 0.6250 (   866 PWs)   bands (ev):

    -3.5180   3.1532   6.6701   8.8348

          k =-0.1250-0.8750 0.1250 (   861 PWs)   bands (ev):

    -1.4142   2.2853   5.6723   7.0441

          k =-0.3750 0.3750 0.3750 (   863 PWs)   bands (ev):

    -4.5787   2.3602  10.3416  10.3416

          k = 0.3750-0.3750 1.1250 (   865 PWs)   bands (ev):

    -1.7278   1.4639   5.2444   8.7158

     highest occupied level (ev):    12.1741

!    total energy              =     -24.07470950 Ry
     estimated scf accuracy    <          3.1E-09 Ry

     The total energy is the sum of the following terms:
     one-electron contribution =       7.90115006 Ry
     hartree contribution      =       1.96399630 Ry
     xc contribution           =      -8.62744214 Ry
     ewald contribution        =     -25.31241372 Ry

     convergence has been achieved in   7 iterations

     Writing output data file ./tmp/diamond.save/

     init_run     :      0.50s CPU      0.11s WALL (       1 calls)
     electrons    :      6.17s CPU      0.68s WALL (       1 calls)

     Called by init_run:
     wfcinit      :      0.39s CPU      0.05s WALL (       1 calls)
     potinit      :      0.02s CPU      0.01s WALL (       1 calls)
     hinit0       :      0.08s CPU      0.04s WALL (       1 calls)

     Called by electrons:
     c_bands      :      5.18s CPU      0.51s WALL (       7 calls)
     sum_band     :      0.45s CPU      0.07s WALL (       7 calls)
     v_of_rho     :      0.50s CPU      0.10s WALL (       8 calls)
     mix_rho      :      0.06s CPU      0.01s WALL (       7 calls)

     Called by c_bands:
     init_us_2    :      0.06s CPU      0.01s WALL (     150 calls)
     cegterg      :      5.01s CPU      0.48s WALL (      70 calls)

     Called by *egterg:
     cdiaghg      :      0.04s CPU      0.01s WALL (     293 calls)
     h_psi        :      5.09s CPU      0.49s WALL (     303 calls)
     g_psi        :      0.00s CPU      0.00s WALL (     223 calls)

     Called by h_psi:
     h_psi:calbec :      0.31s CPU      0.04s WALL (     303 calls)
     vloc_psi     :      4.42s CPU      0.41s WALL (     303 calls)
     add_vuspsi   :      0.35s CPU      0.04s WALL (     303 calls)

     General routines
     calbec       :      0.31s CPU      0.04s WALL (     303 calls)
     fft          :      0.13s CPU      0.04s WALL (      80 calls)
     ffts         :      0.01s CPU      0.00s WALL (       7 calls)
     fftw         :      4.14s CPU      0.39s WALL (    2336 calls)

     Parallel routines

     PWSCF        :      6.81s CPU      0.86s WALL


   This run was terminated on:  23:38:14  19Dec2023            

=------------------------------------------------------------------------------=
   JOB DONE.
=------------------------------------------------------------------------------=
