
     Program PWSCF v.6.6 starts on  5Jan2024 at 15:14:18 

     This program is part of the open-source Quantum ESPRESSO suite
     for quantum simulation of materials; please cite
         "P. Giannozzi et al., J. Phys.:Condens. Matter 21 395502 (2009);
         "P. Giannozzi et al., J. Phys.:Condens. Matter 29 465901 (2017);
          URL http://www.quantum-espresso.org", 
     in publications or presentations arising from this work. More details at
     http://www.quantum-espresso.org/quote

     Parallel version (MPI), running on     1 processors

     MPI processes distributed on     1 nodes
     Fft bands division:     nmany     =       1
     Reading input from lattice-in_6.82.in

     Current dimensions of program PWSCF are:
     Max number of different atomic species (ntypx) = 10
     Max number of k-points (npk) =  40000
     Max angular momentum in pseudopotentials (lmaxx) =  3

     Subspace diagonalization in iterative solution of the eigenvalue problem:
     a serial algorithm will be used


     G-vector sticks info
     --------------------
     sticks:   dense  smooth     PW     G-vecs:    dense   smooth      PW
     Sum         475     475    151                 6879     6879    1243



     bravais-lattice index     =            2
     lattice parameter (alat)  =       6.8200  a.u.
     unit-cell volume          =      79.3036 (a.u.)^3
     number of atoms/cell      =            2
     number of atomic types    =            1
     number of electrons       =         8.00
     number of Kohn-Sham states=            4
     kinetic-energy cutoff     =      75.0000  Ry
     charge density cutoff     =     300.0000  Ry
     convergence threshold     =      1.0E-08
     mixing beta               =       0.7000
     number of iterations used =            8  plain     mixing
     Exchange-correlation= PBE
                           (   1   4   3   4   0   0   0)

     celldm(1)=   6.820000  celldm(2)=   0.000000  celldm(3)=   0.000000
     celldm(4)=   0.000000  celldm(5)=   0.000000  celldm(6)=   0.000000

     crystal axes: (cart. coord. in units of alat)
               a(1) = (  -0.500000   0.000000   0.500000 )  
               a(2) = (   0.000000   0.500000   0.500000 )  
               a(3) = (  -0.500000   0.500000   0.000000 )  

     reciprocal axes: (cart. coord. in units 2 pi/alat)
               b(1) = ( -1.000000 -1.000000  1.000000 )  
               b(2) = (  1.000000  1.000000  1.000000 )  
               b(3) = ( -1.000000  1.000000 -1.000000 )  


     PseudoPot. # 1 for C  read from file:
     ./C.UPF
     MD5 check sum: ead9220225bd72a2f9a48cc2a638047d
     Pseudo is Norm-conserving + core correction, Zval =  4.0
     Generated using ONCVPSP code by D. R. Hamann
     Using radial grid of 1248 points,  4 beta functions with: 
                l(1) =   0
                l(2) =   0
                l(3) =   1
                l(4) =   1

     atomic species   valence    mass     pseudopotential
        C              4.00    12.01070     C ( 1.00)

     48 Sym. Ops., with inversion, found (24 have fractional translation)



   Cartesian axes

     site n.     atom                  positions (alat units)
         1           C   tau(   1) = (   0.0000000   0.0000000   0.0000000  )
         2           C   tau(   2) = (  -0.2500000   0.2500000   0.2500000  )

     number of k points=    10
                       cart. coord. in units 2pi/alat
        k(    1) = (  -0.1250000   0.1250000   0.1250000), wk =   0.0625000
        k(    2) = (  -0.3750000   0.3750000  -0.1250000), wk =   0.1875000
        k(    3) = (   0.3750000  -0.3750000   0.6250000), wk =   0.1875000
        k(    4) = (   0.1250000  -0.1250000   0.3750000), wk =   0.1875000
        k(    5) = (  -0.1250000   0.6250000   0.1250000), wk =   0.1875000
        k(    6) = (   0.6250000  -0.1250000   0.8750000), wk =   0.3750000
        k(    7) = (   0.3750000   0.1250000   0.6250000), wk =   0.3750000
        k(    8) = (  -0.1250000  -0.8750000   0.1250000), wk =   0.1875000
        k(    9) = (  -0.3750000   0.3750000   0.3750000), wk =   0.0625000
        k(   10) = (   0.3750000  -0.3750000   1.1250000), wk =   0.1875000

     Dense  grid:     6879 G-vectors     FFT dimensions: (  32,  32,  32)

     Estimated max dynamical RAM per process >       6.52 MB

     Initial potential from superposition of free atoms

     starting charge    7.99991, renormalised to    8.00000
     Starting wfcs are    8 randomized atomic wfcs

     total cpu time spent up to now is        0.2 secs

     Self-consistent Calculation

     iteration #  1     ecut=    75.00 Ry     beta= 0.70
     Davidson diagonalization with overlap
     ethr =  1.00E-02,  avg # of iterations =  2.0

     total cpu time spent up to now is        0.3 secs

     total energy              =     -24.06689012 Ry
     estimated scf accuracy    <       0.09933025 Ry

     iteration #  2     ecut=    75.00 Ry     beta= 0.70
     Davidson diagonalization with overlap
     ethr =  1.24E-03,  avg # of iterations =  1.4

     total cpu time spent up to now is        0.4 secs

     total energy              =     -24.07287671 Ry
     estimated scf accuracy    <       0.00357341 Ry

     iteration #  3     ecut=    75.00 Ry     beta= 0.70
     Davidson diagonalization with overlap
     ethr =  4.47E-05,  avg # of iterations =  3.0

     total cpu time spent up to now is        0.5 secs

     total energy              =     -24.07432479 Ry
     estimated scf accuracy    <       0.00008232 Ry

     iteration #  4     ecut=    75.00 Ry     beta= 0.70
     Davidson diagonalization with overlap
     ethr =  1.03E-06,  avg # of iterations =  5.1

     total cpu time spent up to now is        1.0 secs

     total energy              =     -24.07442930 Ry
     estimated scf accuracy    <       0.00001199 Ry

     iteration #  5     ecut=    75.00 Ry     beta= 0.70
     Davidson diagonalization with overlap
     ethr =  1.50E-07,  avg # of iterations =  2.6

     total cpu time spent up to now is        1.1 secs

     total energy              =     -24.07443277 Ry
     estimated scf accuracy    <       0.00000113 Ry

     iteration #  6     ecut=    75.00 Ry     beta= 0.70
     Davidson diagonalization with overlap
     ethr =  1.41E-08,  avg # of iterations =  3.0

     total cpu time spent up to now is        1.3 secs

     total energy              =     -24.07443305 Ry
     estimated scf accuracy    <       0.00000002 Ry

     iteration #  7     ecut=    75.00 Ry     beta= 0.70
     Davidson diagonalization with overlap
     ethr =  2.07E-10,  avg # of iterations =  5.1

     total cpu time spent up to now is        1.5 secs

     End of self-consistent calculation

          k =-0.1250 0.1250 0.1250 (   893 PWs)   bands (ev):

    -7.8687  10.3767  12.0995  12.0995

          k =-0.3750 0.3750-0.1250 (   876 PWs)   bands (ev):

    -5.6618   5.1457   8.4866  10.9417

          k = 0.3750-0.3750 0.6250 (   863 PWs)   bands (ev):

    -2.7476   0.5029   8.6806   9.3120

          k = 0.1250-0.1250 0.3750 (   871 PWs)   bands (ev):

    -6.7543   7.7602   9.9516  10.7348

          k =-0.1250 0.6250 0.1250 (   865 PWs)   bands (ev):

    -4.5721   5.3482   7.6459   8.0319

          k = 0.6250-0.1250 0.8750 (   869 PWs)   bands (ev):

    -0.7591   1.7720   4.5746   6.5915

          k = 0.3750 0.1250 0.6250 (   872 PWs)   bands (ev):

    -3.5536   3.1040   6.6140   8.7740

          k =-0.1250-0.8750 0.1250 (   867 PWs)   bands (ev):

    -1.4562   2.2302   5.6258   6.9911

          k =-0.3750 0.3750 0.3750 (   869 PWs)   bands (ev):

    -4.6108   2.3159  10.2744  10.2744

          k = 0.3750-0.3750 1.1250 (   869 PWs)   bands (ev):

    -1.7722   1.4222   5.1937   8.6558

     highest occupied level (ev):    12.0995

!    total energy              =     -24.07443309 Ry
     estimated scf accuracy    <          2.4E-09 Ry

     The total energy is the sum of the following terms:
     one-electron contribution =       7.85226647 Ry
     hartree contribution      =       1.96861903 Ry
     xc contribution           =      -8.62001985 Ry
     ewald contribution        =     -25.27529874 Ry

     convergence has been achieved in   7 iterations

     Writing output data file ./tmp/diamond.save/

     init_run     :      0.63s CPU      0.11s WALL (       1 calls)
     electrons    :     10.94s CPU      1.36s WALL (       1 calls)

     Called by init_run:
     wfcinit      :      0.46s CPU      0.06s WALL (       1 calls)
     potinit      :      0.02s CPU      0.01s WALL (       1 calls)
     hinit0       :      0.15s CPU      0.04s WALL (       1 calls)

     Called by electrons:
     c_bands      :      9.98s CPU      1.21s WALL (       7 calls)
     sum_band     :      0.60s CPU      0.07s WALL (       7 calls)
     v_of_rho     :      0.34s CPU      0.08s WALL (       8 calls)
     mix_rho      :      0.02s CPU      0.01s WALL (       7 calls)

     Called by c_bands:
     init_us_2    :      0.19s CPU      0.01s WALL (     150 calls)
     cegterg      :      9.60s CPU      1.18s WALL (      70 calls)

     Called by *egterg:
     cdiaghg      :      0.09s CPU      0.01s WALL (     292 calls)
     h_psi        :      9.60s CPU      1.18s WALL (     302 calls)
     g_psi        :      0.01s CPU      0.00s WALL (     222 calls)

     Called by h_psi:
     h_psi:calbec :      4.05s CPU      0.51s WALL (     302 calls)
     vloc_psi     :      3.36s CPU      0.42s WALL (     302 calls)
     add_vuspsi   :      2.18s CPU      0.25s WALL (     302 calls)

     General routines
     calbec       :      4.05s CPU      0.51s WALL (     302 calls)
     fft          :      0.21s CPU      0.03s WALL (      80 calls)
     ffts         :      0.01s CPU      0.00s WALL (       7 calls)
     fftw         :      3.16s CPU      0.40s WALL (    2360 calls)

     Parallel routines

     PWSCF        :     11.67s CPU      1.54s WALL


   This run was terminated on:  15:14:19   5Jan2024            

=------------------------------------------------------------------------------=
   JOB DONE.
=------------------------------------------------------------------------------=
