
     Program PWSCF v.6.6 starts on  5Jan2024 at 15:13:53 

     This program is part of the open-source Quantum ESPRESSO suite
     for quantum simulation of materials; please cite
         "P. Giannozzi et al., J. Phys.:Condens. Matter 21 395502 (2009);
         "P. Giannozzi et al., J. Phys.:Condens. Matter 29 465901 (2017);
          URL http://www.quantum-espresso.org", 
     in publications or presentations arising from this work. More details at
     http://www.quantum-espresso.org/quote

     Parallel version (MPI), running on     1 processors

     MPI processes distributed on     1 nodes
     Fft bands division:     nmany     =       1
     Reading input from lattice-in_6.66.in

     Current dimensions of program PWSCF are:
     Max number of different atomic species (ntypx) = 10
     Max number of k-points (npk) =  40000
     Max angular momentum in pseudopotentials (lmaxx) =  3

     Subspace diagonalization in iterative solution of the eigenvalue problem:
     a serial algorithm will be used


     G-vector sticks info
     --------------------
     sticks:   dense  smooth     PW     G-vecs:    dense   smooth      PW
     Sum         451     451    151                 6423     6423    1243



     bravais-lattice index     =            2
     lattice parameter (alat)  =       6.6600  a.u.
     unit-cell volume          =      73.8521 (a.u.)^3
     number of atoms/cell      =            2
     number of atomic types    =            1
     number of electrons       =         8.00
     number of Kohn-Sham states=            4
     kinetic-energy cutoff     =      75.0000  Ry
     charge density cutoff     =     300.0000  Ry
     convergence threshold     =      1.0E-08
     mixing beta               =       0.7000
     number of iterations used =            8  plain     mixing
     Exchange-correlation= PBE
                           (   1   4   3   4   0   0   0)

     celldm(1)=   6.660000  celldm(2)=   0.000000  celldm(3)=   0.000000
     celldm(4)=   0.000000  celldm(5)=   0.000000  celldm(6)=   0.000000

     crystal axes: (cart. coord. in units of alat)
               a(1) = (  -0.500000   0.000000   0.500000 )  
               a(2) = (   0.000000   0.500000   0.500000 )  
               a(3) = (  -0.500000   0.500000   0.000000 )  

     reciprocal axes: (cart. coord. in units 2 pi/alat)
               b(1) = ( -1.000000 -1.000000  1.000000 )  
               b(2) = (  1.000000  1.000000  1.000000 )  
               b(3) = ( -1.000000  1.000000 -1.000000 )  


     PseudoPot. # 1 for C  read from file:
     ./C.UPF
     MD5 check sum: ead9220225bd72a2f9a48cc2a638047d
     Pseudo is Norm-conserving + core correction, Zval =  4.0
     Generated using ONCVPSP code by D. R. Hamann
     Using radial grid of 1248 points,  4 beta functions with: 
                l(1) =   0
                l(2) =   0
                l(3) =   1
                l(4) =   1

     atomic species   valence    mass     pseudopotential
        C              4.00    12.01070     C ( 1.00)

     48 Sym. Ops., with inversion, found (24 have fractional translation)



   Cartesian axes

     site n.     atom                  positions (alat units)
         1           C   tau(   1) = (   0.0000000   0.0000000   0.0000000  )
         2           C   tau(   2) = (  -0.2500000   0.2500000   0.2500000  )

     number of k points=    10
                       cart. coord. in units 2pi/alat
        k(    1) = (  -0.1250000   0.1250000   0.1250000), wk =   0.0625000
        k(    2) = (  -0.3750000   0.3750000  -0.1250000), wk =   0.1875000
        k(    3) = (   0.3750000  -0.3750000   0.6250000), wk =   0.1875000
        k(    4) = (   0.1250000  -0.1250000   0.3750000), wk =   0.1875000
        k(    5) = (  -0.1250000   0.6250000   0.1250000), wk =   0.1875000
        k(    6) = (   0.6250000  -0.1250000   0.8750000), wk =   0.3750000
        k(    7) = (   0.3750000   0.1250000   0.6250000), wk =   0.3750000
        k(    8) = (  -0.1250000  -0.8750000   0.1250000), wk =   0.1875000
        k(    9) = (  -0.3750000   0.3750000   0.3750000), wk =   0.0625000
        k(   10) = (   0.3750000  -0.3750000   1.1250000), wk =   0.1875000

     Dense  grid:     6423 G-vectors     FFT dimensions: (  32,  32,  32)

     Estimated max dynamical RAM per process >       6.26 MB

     Initial potential from superposition of free atoms

     starting charge    7.99991, renormalised to    8.00000
     Starting wfcs are    8 randomized atomic wfcs

     total cpu time spent up to now is        0.2 secs

     Self-consistent Calculation

     iteration #  1     ecut=    75.00 Ry     beta= 0.70
     Davidson diagonalization with overlap
     ethr =  1.00E-02,  avg # of iterations =  2.0

     total cpu time spent up to now is        0.3 secs

     total energy              =     -24.06493759 Ry
     estimated scf accuracy    <       0.11741858 Ry

     iteration #  2     ecut=    75.00 Ry     beta= 0.70
     Davidson diagonalization with overlap
     ethr =  1.47E-03,  avg # of iterations =  1.3

     total cpu time spent up to now is        0.4 secs

     total energy              =     -24.07186583 Ry
     estimated scf accuracy    <       0.00390367 Ry

     iteration #  3     ecut=    75.00 Ry     beta= 0.70
     Davidson diagonalization with overlap
     ethr =  4.88E-05,  avg # of iterations =  2.8

     total cpu time spent up to now is        0.7 secs

     total energy              =     -24.07344200 Ry
     estimated scf accuracy    <       0.00008823 Ry

     iteration #  4     ecut=    75.00 Ry     beta= 0.70
     Davidson diagonalization with overlap
     ethr =  1.10E-06,  avg # of iterations =  5.3

     total cpu time spent up to now is        0.9 secs

     total energy              =     -24.07354793 Ry
     estimated scf accuracy    <       0.00001357 Ry

     iteration #  5     ecut=    75.00 Ry     beta= 0.70
     Davidson diagonalization with overlap
     ethr =  1.70E-07,  avg # of iterations =  2.5

     total cpu time spent up to now is        1.0 secs

     total energy              =     -24.07355139 Ry
     estimated scf accuracy    <       0.00000079 Ry

     iteration #  6     ecut=    75.00 Ry     beta= 0.70
     Davidson diagonalization with overlap
     ethr =  9.92E-09,  avg # of iterations =  3.1

     total cpu time spent up to now is        1.1 secs

     total energy              =     -24.07355168 Ry
     estimated scf accuracy    <       0.00000003 Ry

     iteration #  7     ecut=    75.00 Ry     beta= 0.70
     Davidson diagonalization with overlap
     ethr =  3.32E-10,  avg # of iterations =  4.2

     total cpu time spent up to now is        1.3 secs

     End of self-consistent calculation

          k =-0.1250 0.1250 0.1250 (   818 PWs)   bands (ev):

    -7.5194  11.5338  13.3381  13.3381

          k =-0.3750 0.3750-0.1250 (   814 PWs)   bands (ev):

    -5.1962   6.0462   9.5099  12.1078

          k = 0.3750-0.3750 0.6250 (   812 PWs)   bands (ev):

    -2.0606   1.0947   9.7419  10.3568

          k = 0.1250-0.1250 0.3750 (   816 PWs)   bands (ev):

    -6.3481   8.7916  11.0263  11.9407

          k =-0.1250 0.6250 0.1250 (   818 PWs)   bands (ev):

    -4.0506   6.3338   8.6353   8.9771

          k = 0.6250-0.1250 0.8750 (   806 PWs)   bands (ev):

     0.0258   2.5997   5.3185   7.4248

          k = 0.3750 0.1250 0.6250 (   807 PWs)   bands (ev):

    -2.9648   3.9160   7.5494   9.7849

          k =-0.1250-0.8750 0.1250 (   800 PWs)   bands (ev):

    -0.7597   3.1428   6.3978   7.8692

          k =-0.3750 0.3750 0.3750 (   817 PWs)   bands (ev):

    -4.0785   3.0510  11.3920  11.3920

          k = 0.3750-0.3750 1.1250 (   805 PWs)   bands (ev):

    -1.0350   2.1085   6.0401   9.6518

     highest occupied level (ev):    13.3381

!    total energy              =     -24.07355171 Ry
     estimated scf accuracy    <          4.5E-09 Ry

     The total energy is the sum of the following terms:
     one-electron contribution =       8.65616106 Ry
     hartree contribution      =       1.89530125 Ry
     xc contribution           =      -8.74250089 Ry
     ewald contribution        =     -25.88251313 Ry

     convergence has been achieved in   7 iterations

     Writing output data file ./tmp/diamond.save/

     init_run     :      0.50s CPU      0.09s WALL (       1 calls)
     electrons    :      8.66s CPU      1.10s WALL (       1 calls)

     Called by init_run:
     wfcinit      :      0.43s CPU      0.06s WALL (       1 calls)
     potinit      :      0.02s CPU      0.01s WALL (       1 calls)
     hinit0       :      0.05s CPU      0.03s WALL (       1 calls)

     Called by electrons:
     c_bands      :      7.91s CPU      0.96s WALL (       7 calls)
     sum_band     :      0.45s CPU      0.07s WALL (       7 calls)
     v_of_rho     :      0.25s CPU      0.07s WALL (       8 calls)
     mix_rho      :      0.05s CPU      0.01s WALL (       7 calls)

     Called by c_bands:
     init_us_2    :      0.06s CPU      0.02s WALL (     150 calls)
     cegterg      :      7.83s CPU      0.93s WALL (      70 calls)

     Called by *egterg:
     cdiaghg      :      0.07s CPU      0.01s WALL (     282 calls)
     h_psi        :      7.99s CPU      0.95s WALL (     292 calls)
     g_psi        :      0.01s CPU      0.00s WALL (     212 calls)

     Called by h_psi:
     h_psi:calbec :      2.79s CPU      0.34s WALL (     292 calls)
     vloc_psi     :      3.16s CPU      0.37s WALL (     292 calls)
     add_vuspsi   :      2.03s CPU      0.23s WALL (     292 calls)

     General routines
     calbec       :      2.78s CPU      0.34s WALL (     292 calls)
     fft          :      0.13s CPU      0.03s WALL (      80 calls)
     ffts         :      0.01s CPU      0.00s WALL (       7 calls)
     fftw         :      3.00s CPU      0.36s WALL (    2296 calls)

     Parallel routines

     PWSCF        :      9.29s CPU      1.27s WALL


   This run was terminated on:  15:13:54   5Jan2024            

=------------------------------------------------------------------------------=
   JOB DONE.
=------------------------------------------------------------------------------=
