
     Program PWSCF v.6.6 starts on  5Jan2024 at 15:13:45 

     This program is part of the open-source Quantum ESPRESSO suite
     for quantum simulation of materials; please cite
         "P. Giannozzi et al., J. Phys.:Condens. Matter 21 395502 (2009);
         "P. Giannozzi et al., J. Phys.:Condens. Matter 29 465901 (2017);
          URL http://www.quantum-espresso.org", 
     in publications or presentations arising from this work. More details at
     http://www.quantum-espresso.org/quote

     Parallel version (MPI), running on     1 processors

     MPI processes distributed on     1 nodes
     Fft bands division:     nmany     =       1
     Reading input from lattice-in_6.6.in

     Current dimensions of program PWSCF are:
     Max number of different atomic species (ntypx) = 10
     Max number of k-points (npk) =  40000
     Max angular momentum in pseudopotentials (lmaxx) =  3

     Subspace diagonalization in iterative solution of the eigenvalue problem:
     a serial algorithm will be used


     G-vector sticks info
     --------------------
     sticks:   dense  smooth     PW     G-vecs:    dense   smooth      PW
     Sum         451     451    151                 6303     6303    1139



     bravais-lattice index     =            2
     lattice parameter (alat)  =       6.6000  a.u.
     unit-cell volume          =      71.8740 (a.u.)^3
     number of atoms/cell      =            2
     number of atomic types    =            1
     number of electrons       =         8.00
     number of Kohn-Sham states=            4
     kinetic-energy cutoff     =      75.0000  Ry
     charge density cutoff     =     300.0000  Ry
     convergence threshold     =      1.0E-08
     mixing beta               =       0.7000
     number of iterations used =            8  plain     mixing
     Exchange-correlation= PBE
                           (   1   4   3   4   0   0   0)

     celldm(1)=   6.600000  celldm(2)=   0.000000  celldm(3)=   0.000000
     celldm(4)=   0.000000  celldm(5)=   0.000000  celldm(6)=   0.000000

     crystal axes: (cart. coord. in units of alat)
               a(1) = (  -0.500000   0.000000   0.500000 )  
               a(2) = (   0.000000   0.500000   0.500000 )  
               a(3) = (  -0.500000   0.500000   0.000000 )  

     reciprocal axes: (cart. coord. in units 2 pi/alat)
               b(1) = ( -1.000000 -1.000000  1.000000 )  
               b(2) = (  1.000000  1.000000  1.000000 )  
               b(3) = ( -1.000000  1.000000 -1.000000 )  


     PseudoPot. # 1 for C  read from file:
     ./C.UPF
     MD5 check sum: ead9220225bd72a2f9a48cc2a638047d
     Pseudo is Norm-conserving + core correction, Zval =  4.0
     Generated using ONCVPSP code by D. R. Hamann
     Using radial grid of 1248 points,  4 beta functions with: 
                l(1) =   0
                l(2) =   0
                l(3) =   1
                l(4) =   1

     atomic species   valence    mass     pseudopotential
        C              4.00    12.01070     C ( 1.00)

     48 Sym. Ops., with inversion, found (24 have fractional translation)



   Cartesian axes

     site n.     atom                  positions (alat units)
         1           C   tau(   1) = (   0.0000000   0.0000000   0.0000000  )
         2           C   tau(   2) = (  -0.2500000   0.2500000   0.2500000  )

     number of k points=    10
                       cart. coord. in units 2pi/alat
        k(    1) = (  -0.1250000   0.1250000   0.1250000), wk =   0.0625000
        k(    2) = (  -0.3750000   0.3750000  -0.1250000), wk =   0.1875000
        k(    3) = (   0.3750000  -0.3750000   0.6250000), wk =   0.1875000
        k(    4) = (   0.1250000  -0.1250000   0.3750000), wk =   0.1875000
        k(    5) = (  -0.1250000   0.6250000   0.1250000), wk =   0.1875000
        k(    6) = (   0.6250000  -0.1250000   0.8750000), wk =   0.3750000
        k(    7) = (   0.3750000   0.1250000   0.6250000), wk =   0.3750000
        k(    8) = (  -0.1250000  -0.8750000   0.1250000), wk =   0.1875000
        k(    9) = (  -0.3750000   0.3750000   0.3750000), wk =   0.0625000
        k(   10) = (   0.3750000  -0.3750000   1.1250000), wk =   0.1875000

     Dense  grid:     6303 G-vectors     FFT dimensions: (  32,  32,  32)

     Estimated max dynamical RAM per process >       6.19 MB

     Initial potential from superposition of free atoms

     starting charge    7.99991, renormalised to    8.00000
     Starting wfcs are    8 randomized atomic wfcs

     total cpu time spent up to now is        0.2 secs

     Self-consistent Calculation

     iteration #  1     ecut=    75.00 Ry     beta= 0.70
     Davidson diagonalization with overlap
     ethr =  1.00E-02,  avg # of iterations =  2.0

     total cpu time spent up to now is        0.3 secs

     total energy              =     -24.06094257 Ry
     estimated scf accuracy    <       0.12475728 Ry

     iteration #  2     ecut=    75.00 Ry     beta= 0.70
     Davidson diagonalization with overlap
     ethr =  1.56E-03,  avg # of iterations =  1.3

     total cpu time spent up to now is        0.3 secs

     total energy              =     -24.06829648 Ry
     estimated scf accuracy    <       0.00406462 Ry

     iteration #  3     ecut=    75.00 Ry     beta= 0.70
     Davidson diagonalization with overlap
     ethr =  5.08E-05,  avg # of iterations =  2.8

     total cpu time spent up to now is        0.5 secs

     total energy              =     -24.06994555 Ry
     estimated scf accuracy    <       0.00009184 Ry

     iteration #  4     ecut=    75.00 Ry     beta= 0.70
     Davidson diagonalization with overlap
     ethr =  1.15E-06,  avg # of iterations =  5.1

     total cpu time spent up to now is        1.0 secs

     total energy              =     -24.07005239 Ry
     estimated scf accuracy    <       0.00001466 Ry

     iteration #  5     ecut=    75.00 Ry     beta= 0.70
     Davidson diagonalization with overlap
     ethr =  1.83E-07,  avg # of iterations =  2.3

     total cpu time spent up to now is        1.1 secs

     total energy              =     -24.07005616 Ry
     estimated scf accuracy    <       0.00000085 Ry

     iteration #  6     ecut=    75.00 Ry     beta= 0.70
     Davidson diagonalization with overlap
     ethr =  1.06E-08,  avg # of iterations =  3.4

     total cpu time spent up to now is        1.3 secs

     End of self-consistent calculation

          k =-0.1250 0.1250 0.1250 (   791 PWs)   bands (ev):

    -7.3793  11.9910  13.8293  13.8293

          k =-0.3750 0.3750-0.1250 (   796 PWs)   bands (ev):

    -5.0112   6.4019   9.9161  12.5703

          k = 0.3750-0.3750 0.6250 (   795 PWs)   bands (ev):

    -1.7889   1.3298  10.1630  10.7713

          k = 0.1250-0.1250 0.3750 (   800 PWs)   bands (ev):

    -6.1860   9.1986  11.4521  12.4194

          k =-0.1250 0.6250 0.1250 (   792 PWs)   bands (ev):

    -3.8438   6.7205   9.0307   9.3520

          k = 0.6250-0.1250 0.8750 (   783 PWs)   bands (ev):

     0.3361   2.9241   5.6175   7.7553

          k = 0.3750 0.1250 0.6250 (   788 PWs)   bands (ev):

    -2.7321   4.2361   7.9218  10.1864

          k =-0.1250-0.8750 0.1250 (   780 PWs)   bands (ev):

    -0.4845   3.5036   6.7039   8.2175

          k =-0.3750 0.3750 0.3750 (   784 PWs)   bands (ev):

    -3.8679   3.3430  11.8357  11.8357

          k = 0.3750-0.3750 1.1250 (   787 PWs)   bands (ev):

    -0.7434   2.3781   6.3781  10.0466

     highest occupied level (ev):    13.8293

!    total energy              =     -24.07005654 Ry
     estimated scf accuracy    <          5.0E-09 Ry

     The total energy is the sum of the following terms:
     one-electron contribution =       8.97019281 Ry
     hartree contribution      =       1.86805619 Ry
     xc contribution           =      -8.79049684 Ry
     ewald contribution        =     -26.11780870 Ry

     convergence has been achieved in   6 iterations

     Writing output data file ./tmp/diamond.save/

     init_run     :      0.50s CPU      0.10s WALL (       1 calls)
     electrons    :      8.61s CPU      1.11s WALL (       1 calls)

     Called by init_run:
     wfcinit      :      0.41s CPU      0.05s WALL (       1 calls)
     potinit      :      0.02s CPU      0.01s WALL (       1 calls)
     hinit0       :      0.06s CPU      0.03s WALL (       1 calls)

     Called by electrons:
     c_bands      :      7.94s CPU      0.99s WALL (       6 calls)
     sum_band     :      0.48s CPU      0.06s WALL (       6 calls)
     v_of_rho     :      0.16s CPU      0.06s WALL (       7 calls)
     mix_rho      :      0.04s CPU      0.01s WALL (       6 calls)

     Called by c_bands:
     init_us_2    :      0.05s CPU      0.01s WALL (     130 calls)
     cegterg      :      7.81s CPU      0.97s WALL (      60 calls)

     Called by *egterg:
     cdiaghg      :      0.05s CPU      0.01s WALL (     229 calls)
     h_psi        :      7.89s CPU      0.99s WALL (     239 calls)
     g_psi        :      0.01s CPU      0.00s WALL (     169 calls)

     Called by h_psi:
     h_psi:calbec :      2.67s CPU      0.33s WALL (     239 calls)
     vloc_psi     :      2.97s CPU      0.39s WALL (     239 calls)
     add_vuspsi   :      2.23s CPU      0.27s WALL (     239 calls)

     General routines
     calbec       :      2.67s CPU      0.33s WALL (     239 calls)
     fft          :      0.10s CPU      0.03s WALL (      70 calls)
     ffts         :      0.01s CPU      0.00s WALL (       6 calls)
     fftw         :      2.82s CPU      0.36s WALL (    1954 calls)

     Parallel routines

     PWSCF        :      9.22s CPU      1.28s WALL


   This run was terminated on:  15:13:46   5Jan2024            

=------------------------------------------------------------------------------=
   JOB DONE.
=------------------------------------------------------------------------------=
