
     Program PWSCF v.6.6 starts on 19Dec2023 at 23:38: 9 

     This program is part of the open-source Quantum ESPRESSO suite
     for quantum simulation of materials; please cite
         "P. Giannozzi et al., J. Phys.:Condens. Matter 21 395502 (2009);
         "P. Giannozzi et al., J. Phys.:Condens. Matter 29 465901 (2017);
          URL http://www.quantum-espresso.org", 
     in publications or presentations arising from this work. More details at
     http://www.quantum-espresso.org/quote

     Parallel version (MPI), running on     1 processors

     MPI processes distributed on     1 nodes
     Fft bands division:     nmany     =       1
     Reading input from lattice-in_6.76.in

     Current dimensions of program PWSCF are:
     Max number of different atomic species (ntypx) = 10
     Max number of k-points (npk) =  40000
     Max angular momentum in pseudopotentials (lmaxx) =  3

     Subspace diagonalization in iterative solution of the eigenvalue problem:
     a serial algorithm will be used


     G-vector sticks info
     --------------------
     sticks:   dense  smooth     PW     G-vecs:    dense   smooth      PW
     Sum         475     475    151                 6855     6855    1243



     bravais-lattice index     =            2
     lattice parameter (alat)  =       6.7600  a.u.
     unit-cell volume          =      77.2289 (a.u.)^3
     number of atoms/cell      =            2
     number of atomic types    =            1
     number of electrons       =         8.00
     number of Kohn-Sham states=            4
     kinetic-energy cutoff     =      75.0000  Ry
     charge density cutoff     =     300.0000  Ry
     convergence threshold     =      1.0E-08
     mixing beta               =       0.7000
     number of iterations used =            8  plain     mixing
     Exchange-correlation= PBE
                           (   1   4   3   4   0   0   0)

     celldm(1)=   6.760000  celldm(2)=   0.000000  celldm(3)=   0.000000
     celldm(4)=   0.000000  celldm(5)=   0.000000  celldm(6)=   0.000000

     crystal axes: (cart. coord. in units of alat)
               a(1) = (  -0.500000   0.000000   0.500000 )  
               a(2) = (   0.000000   0.500000   0.500000 )  
               a(3) = (  -0.500000   0.500000   0.000000 )  

     reciprocal axes: (cart. coord. in units 2 pi/alat)
               b(1) = ( -1.000000 -1.000000  1.000000 )  
               b(2) = (  1.000000  1.000000  1.000000 )  
               b(3) = ( -1.000000  1.000000 -1.000000 )  


     PseudoPot. # 1 for C  read from file:
     ./C.UPF
     MD5 check sum: ead9220225bd72a2f9a48cc2a638047d
     Pseudo is Norm-conserving + core correction, Zval =  4.0
     Generated using ONCVPSP code by D. R. Hamann
     Using radial grid of 1248 points,  4 beta functions with: 
                l(1) =   0
                l(2) =   0
                l(3) =   1
                l(4) =   1

     atomic species   valence    mass     pseudopotential
        C              4.00    12.01070     C ( 1.00)

     48 Sym. Ops., with inversion, found (24 have fractional translation)



   Cartesian axes

     site n.     atom                  positions (alat units)
         1           C   tau(   1) = (   0.0000000   0.0000000   0.0000000  )
         2           C   tau(   2) = (  -0.2500000   0.2500000   0.2500000  )

     number of k points=    10
                       cart. coord. in units 2pi/alat
        k(    1) = (  -0.1250000   0.1250000   0.1250000), wk =   0.0625000
        k(    2) = (  -0.3750000   0.3750000  -0.1250000), wk =   0.1875000
        k(    3) = (   0.3750000  -0.3750000   0.6250000), wk =   0.1875000
        k(    4) = (   0.1250000  -0.1250000   0.3750000), wk =   0.1875000
        k(    5) = (  -0.1250000   0.6250000   0.1250000), wk =   0.1875000
        k(    6) = (   0.6250000  -0.1250000   0.8750000), wk =   0.3750000
        k(    7) = (   0.3750000   0.1250000   0.6250000), wk =   0.3750000
        k(    8) = (  -0.1250000  -0.8750000   0.1250000), wk =   0.1875000
        k(    9) = (  -0.3750000   0.3750000   0.3750000), wk =   0.0625000
        k(   10) = (   0.3750000  -0.3750000   1.1250000), wk =   0.1875000

     Dense  grid:     6855 G-vectors     FFT dimensions: (  32,  32,  32)

     Estimated max dynamical RAM per process >       6.48 MB

     Initial potential from superposition of free atoms

     starting charge    7.99991, renormalised to    8.00000
     Starting wfcs are    8 randomized atomic wfcs

     total cpu time spent up to now is        0.2 secs

     Self-consistent Calculation

     iteration #  1     ecut=    75.00 Ry     beta= 0.70
     Davidson diagonalization with overlap
     ethr =  1.00E-02,  avg # of iterations =  2.0

     total cpu time spent up to now is        0.2 secs

     total energy              =     -24.06752271 Ry
     estimated scf accuracy    <       0.10596598 Ry

     iteration #  2     ecut=    75.00 Ry     beta= 0.70
     Davidson diagonalization with overlap
     ethr =  1.32E-03,  avg # of iterations =  1.3

     total cpu time spent up to now is        0.3 secs

     total energy              =     -24.07384616 Ry
     estimated scf accuracy    <       0.00367358 Ry

     iteration #  3     ecut=    75.00 Ry     beta= 0.70
     Davidson diagonalization with overlap
     ethr =  4.59E-05,  avg # of iterations =  2.8

     total cpu time spent up to now is        0.4 secs

     total energy              =     -24.07534761 Ry
     estimated scf accuracy    <       0.00008518 Ry

     iteration #  4     ecut=    75.00 Ry     beta= 0.70
     Davidson diagonalization with overlap
     ethr =  1.06E-06,  avg # of iterations =  5.4

     total cpu time spent up to now is        0.6 secs

     total energy              =     -24.07545742 Ry
     estimated scf accuracy    <       0.00001283 Ry

     iteration #  5     ecut=    75.00 Ry     beta= 0.70
     Davidson diagonalization with overlap
     ethr =  1.60E-07,  avg # of iterations =  2.4

     total cpu time spent up to now is        0.6 secs

     total energy              =     -24.07546056 Ry
     estimated scf accuracy    <       0.00000083 Ry

     iteration #  6     ecut=    75.00 Ry     beta= 0.70
     Davidson diagonalization with overlap
     ethr =  1.04E-08,  avg # of iterations =  3.2

     total cpu time spent up to now is        0.7 secs

     total energy              =     -24.07546084 Ry
     estimated scf accuracy    <       0.00000001 Ry

     iteration #  7     ecut=    75.00 Ry     beta= 0.70
     Davidson diagonalization with overlap
     ethr =  1.85E-10,  avg # of iterations =  5.2

     total cpu time spent up to now is        0.8 secs

     End of self-consistent calculation

          k =-0.1250 0.1250 0.1250 (   869 PWs)   bands (ev):

    -7.7415  10.8006  12.5523  12.5523

          k =-0.3750 0.3750-0.1250 (   850 PWs)   bands (ev):

    -5.4916   5.4757   8.8607  11.3683

          k = 0.3750-0.3750 0.6250 (   842 PWs)   bands (ev):

    -2.4961   0.7194   9.0688   9.6941

          k = 0.1250-0.1250 0.3750 (   858 PWs)   bands (ev):

    -6.6061   8.1384  10.3446  11.1753

          k =-0.1250 0.6250 0.1250 (   845 PWs)   bands (ev):

    -4.3813   5.7105   8.0067   8.3779

          k = 0.6250-0.1250 0.8750 (   844 PWs)   bands (ev):

    -0.4716   2.0765   4.8452   6.8963

          k = 0.3750 0.1250 0.6250 (   850 PWs)   bands (ev):

    -3.3379   3.4019   6.9555   9.1436

          k =-0.1250-0.8750 0.1250 (   843 PWs)   bands (ev):

    -1.2010   2.5645   5.9080   7.3124

          k =-0.3750 0.3750 0.3750 (   848 PWs)   bands (ev):

    -4.4159   2.5847  10.6832  10.6832

          k = 0.3750-0.3750 1.1250 (   843 PWs)   bands (ev):

    -1.5023   1.6745   5.5020   9.0201

     highest occupied level (ev):    12.5523

!    total energy              =     -24.07546086 Ry
     estimated scf accuracy    <          9.7E-10 Ry

     The total energy is the sum of the following terms:
     one-electron contribution =       8.14822157 Ry
     hartree contribution      =       1.94096929 Ry
     xc contribution           =      -8.66501600 Ry
     ewald contribution        =     -25.49963571 Ry

     convergence has been achieved in   7 iterations

     Writing output data file ./tmp/diamond.save/

     init_run     :      0.43s CPU      0.09s WALL (       1 calls)
     electrons    :      6.02s CPU      0.69s WALL (       1 calls)

     Called by init_run:
     wfcinit      :      0.31s CPU      0.03s WALL (       1 calls)
     potinit      :      0.03s CPU      0.01s WALL (       1 calls)
     hinit0       :      0.08s CPU      0.04s WALL (       1 calls)

     Called by electrons:
     c_bands      :      4.83s CPU      0.53s WALL (       7 calls)
     sum_band     :      0.78s CPU      0.08s WALL (       7 calls)
     v_of_rho     :      0.35s CPU      0.08s WALL (       8 calls)
     mix_rho      :      0.05s CPU      0.01s WALL (       7 calls)

     Called by c_bands:
     init_us_2    :      0.14s CPU      0.01s WALL (     150 calls)
     cegterg      :      4.65s CPU      0.50s WALL (      70 calls)

     Called by *egterg:
     cdiaghg      :      0.05s CPU      0.01s WALL (     293 calls)
     h_psi        :      4.67s CPU      0.50s WALL (     303 calls)
     g_psi        :      0.03s CPU      0.00s WALL (     223 calls)

     Called by h_psi:
     h_psi:calbec :      0.52s CPU      0.05s WALL (     303 calls)
     vloc_psi     :      3.92s CPU      0.42s WALL (     303 calls)
     add_vuspsi   :      0.23s CPU      0.03s WALL (     303 calls)

     General routines
     calbec       :      0.52s CPU      0.04s WALL (     303 calls)
     fft          :      0.15s CPU      0.04s WALL (      80 calls)
     ffts         :      0.01s CPU      0.00s WALL (       7 calls)
     fftw         :      3.78s CPU      0.40s WALL (    2330 calls)

     Parallel routines

     PWSCF        :      6.58s CPU      0.86s WALL


   This run was terminated on:  23:38:10  19Dec2023            

=------------------------------------------------------------------------------=
   JOB DONE.
=------------------------------------------------------------------------------=
