
     Program PWSCF v.6.6 starts on 19Dec2023 at 23:38:21 

     This program is part of the open-source Quantum ESPRESSO suite
     for quantum simulation of materials; please cite
         "P. Giannozzi et al., J. Phys.:Condens. Matter 21 395502 (2009);
         "P. Giannozzi et al., J. Phys.:Condens. Matter 29 465901 (2017);
          URL http://www.quantum-espresso.org", 
     in publications or presentations arising from this work. More details at
     http://www.quantum-espresso.org/quote

     Parallel version (MPI), running on     1 processors

     MPI processes distributed on     1 nodes
     Fft bands division:     nmany     =       1
     Reading input from lattice-in_6.89.in

     Current dimensions of program PWSCF are:
     Max number of different atomic species (ntypx) = 10
     Max number of k-points (npk) =  40000
     Max angular momentum in pseudopotentials (lmaxx) =  3

     Subspace diagonalization in iterative solution of the eigenvalue problem:
     a serial algorithm will be used


     G-vector sticks info
     --------------------
     sticks:   dense  smooth     PW     G-vecs:    dense   smooth      PW
     Sum         499     499    163                 7239     7239    1291



     bravais-lattice index     =            2
     lattice parameter (alat)  =       6.8900  a.u.
     unit-cell volume          =      81.7707 (a.u.)^3
     number of atoms/cell      =            2
     number of atomic types    =            1
     number of electrons       =         8.00
     number of Kohn-Sham states=            4
     kinetic-energy cutoff     =      75.0000  Ry
     charge density cutoff     =     300.0000  Ry
     convergence threshold     =      1.0E-08
     mixing beta               =       0.7000
     number of iterations used =            8  plain     mixing
     Exchange-correlation= PBE
                           (   1   4   3   4   0   0   0)

     celldm(1)=   6.890000  celldm(2)=   0.000000  celldm(3)=   0.000000
     celldm(4)=   0.000000  celldm(5)=   0.000000  celldm(6)=   0.000000

     crystal axes: (cart. coord. in units of alat)
               a(1) = (  -0.500000   0.000000   0.500000 )  
               a(2) = (   0.000000   0.500000   0.500000 )  
               a(3) = (  -0.500000   0.500000   0.000000 )  

     reciprocal axes: (cart. coord. in units 2 pi/alat)
               b(1) = ( -1.000000 -1.000000  1.000000 )  
               b(2) = (  1.000000  1.000000  1.000000 )  
               b(3) = ( -1.000000  1.000000 -1.000000 )  


     PseudoPot. # 1 for C  read from file:
     ./C.UPF
     MD5 check sum: ead9220225bd72a2f9a48cc2a638047d
     Pseudo is Norm-conserving + core correction, Zval =  4.0
     Generated using ONCVPSP code by D. R. Hamann
     Using radial grid of 1248 points,  4 beta functions with: 
                l(1) =   0
                l(2) =   0
                l(3) =   1
                l(4) =   1

     atomic species   valence    mass     pseudopotential
        C              4.00    12.01070     C ( 1.00)

     48 Sym. Ops., with inversion, found (24 have fractional translation)



   Cartesian axes

     site n.     atom                  positions (alat units)
         1           C   tau(   1) = (   0.0000000   0.0000000   0.0000000  )
         2           C   tau(   2) = (  -0.2500000   0.2500000   0.2500000  )

     number of k points=    10
                       cart. coord. in units 2pi/alat
        k(    1) = (  -0.1250000   0.1250000   0.1250000), wk =   0.0625000
        k(    2) = (  -0.3750000   0.3750000  -0.1250000), wk =   0.1875000
        k(    3) = (   0.3750000  -0.3750000   0.6250000), wk =   0.1875000
        k(    4) = (   0.1250000  -0.1250000   0.3750000), wk =   0.1875000
        k(    5) = (  -0.1250000   0.6250000   0.1250000), wk =   0.1875000
        k(    6) = (   0.6250000  -0.1250000   0.8750000), wk =   0.3750000
        k(    7) = (   0.3750000   0.1250000   0.6250000), wk =   0.3750000
        k(    8) = (  -0.1250000  -0.8750000   0.1250000), wk =   0.1875000
        k(    9) = (  -0.3750000   0.3750000   0.3750000), wk =   0.0625000
        k(   10) = (   0.3750000  -0.3750000   1.1250000), wk =   0.1875000

     Dense  grid:     7239 G-vectors     FFT dimensions: (  32,  32,  32)

     Estimated max dynamical RAM per process >       6.70 MB

     Initial potential from superposition of free atoms

     starting charge    7.99991, renormalised to    8.00000
     Starting wfcs are    8 randomized atomic wfcs

     total cpu time spent up to now is        0.2 secs

     Self-consistent Calculation

     iteration #  1     ecut=    75.00 Ry     beta= 0.70
     Davidson diagonalization with overlap
     ethr =  1.00E-02,  avg # of iterations =  2.0

     total cpu time spent up to now is        0.2 secs

     total energy              =     -24.06442799 Ry
     estimated scf accuracy    <       0.09220258 Ry

     iteration #  2     ecut=    75.00 Ry     beta= 0.70
     Davidson diagonalization with overlap
     ethr =  1.15E-03,  avg # of iterations =  1.3

     total cpu time spent up to now is        0.3 secs

     total energy              =     -24.06990566 Ry
     estimated scf accuracy    <       0.00343524 Ry

     iteration #  3     ecut=    75.00 Ry     beta= 0.70
     Davidson diagonalization with overlap
     ethr =  4.29E-05,  avg # of iterations =  2.9

     total cpu time spent up to now is        0.4 secs

     total energy              =     -24.07127749 Ry
     estimated scf accuracy    <       0.00008043 Ry

     iteration #  4     ecut=    75.00 Ry     beta= 0.70
     Davidson diagonalization with overlap
     ethr =  1.01E-06,  avg # of iterations =  5.1

     total cpu time spent up to now is        0.5 secs

     total energy              =     -24.07138500 Ry
     estimated scf accuracy    <       0.00001188 Ry

     iteration #  5     ecut=    75.00 Ry     beta= 0.70
     Davidson diagonalization with overlap
     ethr =  1.49E-07,  avg # of iterations =  2.7

     total cpu time spent up to now is        0.6 secs

     total energy              =     -24.07138847 Ry
     estimated scf accuracy    <       0.00000086 Ry

     iteration #  6     ecut=    75.00 Ry     beta= 0.70
     Davidson diagonalization with overlap
     ethr =  1.07E-08,  avg # of iterations =  3.3

     total cpu time spent up to now is        0.7 secs

     total energy              =     -24.07138874 Ry
     estimated scf accuracy    <       0.00000001 Ry

     iteration #  7     ecut=    75.00 Ry     beta= 0.70
     Davidson diagonalization with overlap
     ethr =  1.58E-10,  avg # of iterations =  5.1

     total cpu time spent up to now is        0.8 secs

     End of self-consistent calculation

          k =-0.1250 0.1250 0.1250 (   914 PWs)   bands (ev):

    -8.0113   9.8979  11.5884  11.5884

          k =-0.3750 0.3750-0.1250 (   897 PWs)   bands (ev):

    -5.8537   4.7724   8.0647  10.4607

          k = 0.3750-0.3750 0.6250 (   900 PWs)   bands (ev):

    -3.0319   0.2582   8.2426   8.8803

          k = 0.1250-0.1250 0.3750 (   900 PWs)   bands (ev):

    -6.9210   7.3315   9.5078  10.2375

          k =-0.1250 0.6250 0.1250 (   895 PWs)   bands (ev):

    -4.7875   4.9366   7.2405   7.6417

          k = 0.6250-0.1250 0.8750 (   904 PWs)   bands (ev):

    -1.0839   1.4261   4.2713   6.2474

          k = 0.3750 0.1250 0.6250 (   893 PWs)   bands (ev):

    -3.7974   2.7665   6.2295   8.3570

          k =-0.1250-0.8750 0.1250 (   902 PWs)   bands (ev):

    -1.7451   1.8521   5.3073   6.6284

          k =-0.3750 0.3750 0.3750 (   905 PWs)   bands (ev):

    -4.8310   2.0126   9.8129   9.8129

          k = 0.3750-0.3750 1.1250 (   895 PWs)   bands (ev):

    -2.0773   1.1357   4.8476   8.2446

     highest occupied level (ev):    11.5884

!    total energy              =     -24.07138876 Ry
     estimated scf accuracy    <          1.8E-09 Ry

     The total energy is the sum of the following terms:
     one-electron contribution =       7.51495477 Ry
     hartree contribution      =       2.00103573 Ry
     xc contribution           =      -8.56886875 Ry
     ewald contribution        =     -25.01851051 Ry

     convergence has been achieved in   7 iterations

     Writing output data file ./tmp/diamond.save/

     init_run     :      0.46s CPU      0.10s WALL (       1 calls)
     electrons    :      5.88s CPU      0.65s WALL (       1 calls)

     Called by init_run:
     wfcinit      :      0.35s CPU      0.04s WALL (       1 calls)
     potinit      :      0.03s CPU      0.02s WALL (       1 calls)
     hinit0       :      0.07s CPU      0.04s WALL (       1 calls)

     Called by electrons:
     c_bands      :      4.93s CPU      0.49s WALL (       7 calls)
     sum_band     :      0.60s CPU      0.07s WALL (       7 calls)
     v_of_rho     :      0.33s CPU      0.09s WALL (       8 calls)
     mix_rho      :      0.04s CPU      0.01s WALL (       7 calls)

     Called by c_bands:
     init_us_2    :      0.08s CPU      0.01s WALL (     150 calls)
     cegterg      :      4.66s CPU      0.46s WALL (      70 calls)

     Called by *egterg:
     cdiaghg      :      0.11s CPU      0.01s WALL (     294 calls)
     h_psi        :      4.62s CPU      0.46s WALL (     304 calls)
     g_psi        :      0.00s CPU      0.00s WALL (     224 calls)

     Called by h_psi:
     h_psi:calbec :      0.29s CPU      0.02s WALL (     304 calls)
     vloc_psi     :      4.16s CPU      0.42s WALL (     304 calls)
     add_vuspsi   :      0.15s CPU      0.02s WALL (     304 calls)

     General routines
     calbec       :      0.28s CPU      0.02s WALL (     304 calls)
     fft          :      0.20s CPU      0.04s WALL (      80 calls)
     ffts         :      0.02s CPU      0.00s WALL (       7 calls)
     fftw         :      3.91s CPU      0.40s WALL (    2348 calls)

     Parallel routines

     PWSCF        :      6.48s CPU      0.83s WALL


   This run was terminated on:  23:38:21  19Dec2023            

=------------------------------------------------------------------------------=
   JOB DONE.
=------------------------------------------------------------------------------=
