
     Program PWSCF v.6.6 starts on 19Dec2023 at 23:37:40 

     This program is part of the open-source Quantum ESPRESSO suite
     for quantum simulation of materials; please cite
         "P. Giannozzi et al., J. Phys.:Condens. Matter 21 395502 (2009);
         "P. Giannozzi et al., J. Phys.:Condens. Matter 29 465901 (2017);
          URL http://www.quantum-espresso.org", 
     in publications or presentations arising from this work. More details at
     http://www.quantum-espresso.org/quote

     Parallel version (MPI), running on     1 processors

     MPI processes distributed on     1 nodes
     Fft bands division:     nmany     =       1
     Reading input from lattice-in_6.43.in

     Current dimensions of program PWSCF are:
     Max number of different atomic species (ntypx) = 10
     Max number of k-points (npk) =  40000
     Max angular momentum in pseudopotentials (lmaxx) =  3

     Subspace diagonalization in iterative solution of the eigenvalue problem:
     a serial algorithm will be used


     G-vector sticks info
     --------------------
     sticks:   dense  smooth     PW     G-vecs:    dense   smooth      PW
     Sum         433     433    139                 5817     5817    1067



     bravais-lattice index     =            2
     lattice parameter (alat)  =       6.4300  a.u.
     unit-cell volume          =      66.4619 (a.u.)^3
     number of atoms/cell      =            2
     number of atomic types    =            1
     number of electrons       =         8.00
     number of Kohn-Sham states=            4
     kinetic-energy cutoff     =      75.0000  Ry
     charge density cutoff     =     300.0000  Ry
     convergence threshold     =      1.0E-08
     mixing beta               =       0.7000
     number of iterations used =            8  plain     mixing
     Exchange-correlation= PBE
                           (   1   4   3   4   0   0   0)

     celldm(1)=   6.430000  celldm(2)=   0.000000  celldm(3)=   0.000000
     celldm(4)=   0.000000  celldm(5)=   0.000000  celldm(6)=   0.000000

     crystal axes: (cart. coord. in units of alat)
               a(1) = (  -0.500000   0.000000   0.500000 )  
               a(2) = (   0.000000   0.500000   0.500000 )  
               a(3) = (  -0.500000   0.500000   0.000000 )  

     reciprocal axes: (cart. coord. in units 2 pi/alat)
               b(1) = ( -1.000000 -1.000000  1.000000 )  
               b(2) = (  1.000000  1.000000  1.000000 )  
               b(3) = ( -1.000000  1.000000 -1.000000 )  


     PseudoPot. # 1 for C  read from file:
     ./C.UPF
     MD5 check sum: ead9220225bd72a2f9a48cc2a638047d
     Pseudo is Norm-conserving + core correction, Zval =  4.0
     Generated using ONCVPSP code by D. R. Hamann
     Using radial grid of 1248 points,  4 beta functions with: 
                l(1) =   0
                l(2) =   0
                l(3) =   1
                l(4) =   1

     atomic species   valence    mass     pseudopotential
        C              4.00    12.01070     C ( 1.00)

     48 Sym. Ops., with inversion, found (24 have fractional translation)



   Cartesian axes

     site n.     atom                  positions (alat units)
         1           C   tau(   1) = (   0.0000000   0.0000000   0.0000000  )
         2           C   tau(   2) = (  -0.2500000   0.2500000   0.2500000  )

     number of k points=    10
                       cart. coord. in units 2pi/alat
        k(    1) = (  -0.1250000   0.1250000   0.1250000), wk =   0.0625000
        k(    2) = (  -0.3750000   0.3750000  -0.1250000), wk =   0.1875000
        k(    3) = (   0.3750000  -0.3750000   0.6250000), wk =   0.1875000
        k(    4) = (   0.1250000  -0.1250000   0.3750000), wk =   0.1875000
        k(    5) = (  -0.1250000   0.6250000   0.1250000), wk =   0.1875000
        k(    6) = (   0.6250000  -0.1250000   0.8750000), wk =   0.3750000
        k(    7) = (   0.3750000   0.1250000   0.6250000), wk =   0.3750000
        k(    8) = (  -0.1250000  -0.8750000   0.1250000), wk =   0.1875000
        k(    9) = (  -0.3750000   0.3750000   0.3750000), wk =   0.0625000
        k(   10) = (   0.3750000  -0.3750000   1.1250000), wk =   0.1875000

     Dense  grid:     5817 G-vectors     FFT dimensions: (  32,  32,  32)

     Estimated max dynamical RAM per process >       5.92 MB

     Initial potential from superposition of free atoms

     starting charge    7.99991, renormalised to    8.00000
     Starting wfcs are    8 randomized atomic wfcs

     total cpu time spent up to now is        0.2 secs

     Self-consistent Calculation

     iteration #  1     ecut=    75.00 Ry     beta= 0.70
     Davidson diagonalization with overlap
     ethr =  1.00E-02,  avg # of iterations =  2.0

     total cpu time spent up to now is        0.2 secs

     total energy              =     -24.03877439 Ry
     estimated scf accuracy    <       0.14784764 Ry

     iteration #  2     ecut=    75.00 Ry     beta= 0.70
     Davidson diagonalization with overlap
     ethr =  1.85E-03,  avg # of iterations =  1.3

     total cpu time spent up to now is        0.3 secs

     total energy              =     -24.04736297 Ry
     estimated scf accuracy    <       0.00451636 Ry

     iteration #  3     ecut=    75.00 Ry     beta= 0.70
     Davidson diagonalization with overlap
     ethr =  5.65E-05,  avg # of iterations =  3.0

     total cpu time spent up to now is        0.4 secs

     total energy              =     -24.04913263 Ry
     estimated scf accuracy    <       0.00010135 Ry

     iteration #  4     ecut=    75.00 Ry     beta= 0.70
     Davidson diagonalization with overlap
     ethr =  1.27E-06,  avg # of iterations =  4.5

     total cpu time spent up to now is        0.5 secs

     total energy              =     -24.04922107 Ry
     estimated scf accuracy    <       0.00001818 Ry

     iteration #  5     ecut=    75.00 Ry     beta= 0.70
     Davidson diagonalization with overlap
     ethr =  2.27E-07,  avg # of iterations =  2.2

     total cpu time spent up to now is        0.6 secs

     total energy              =     -24.04922569 Ry
     estimated scf accuracy    <       0.00000074 Ry

     iteration #  6     ecut=    75.00 Ry     beta= 0.70
     Davidson diagonalization with overlap
     ethr =  9.28E-09,  avg # of iterations =  4.1

     total cpu time spent up to now is        0.7 secs

     total energy              =     -24.04922613 Ry
     estimated scf accuracy    <       0.00000002 Ry

     iteration #  7     ecut=    75.00 Ry     beta= 0.70
     Davidson diagonalization with overlap
     ethr =  2.27E-10,  avg # of iterations =  4.4

     total cpu time spent up to now is        0.8 secs

     End of self-consistent calculation

          k =-0.1250 0.1250 0.1250 (   724 PWs)   bands (ev):

    -6.9534  13.3625  15.3037  15.3037

          k =-0.3750 0.3750-0.1250 (   733 PWs)   bands (ev):

    -4.4540   7.4682  11.1372  13.9608

          k = 0.3750-0.3750 0.6250 (   732 PWs)   bands (ev):

    -0.9764   2.0403  11.4291  12.0165

          k = 0.1250-0.1250 0.3750 (   726 PWs)   bands (ev):

    -5.6956  10.4163  12.7313  13.8605

          k =-0.1250 0.6250 0.1250 (   728 PWs)   bands (ev):

    -3.2219   7.8701  10.2273  10.4775

          k = 0.6250-0.1250 0.8750 (   723 PWs)   bands (ev):

     1.2654   3.8859   6.5292   8.7485

          k = 0.3750 0.1250 0.6250 (   729 PWs)   bands (ev):

    -2.0352   5.1945   9.0445  11.3934

          k =-0.1250-0.8750 0.1250 (   730 PWs)   bands (ev):

     0.3390   4.5845   7.6250   9.2636

          k =-0.3750 0.3750 0.3750 (   745 PWs)   bands (ev):

    -3.2364   4.2234  13.1683  13.1683

          k = 0.3750-0.3750 1.1250 (   722 PWs)   bands (ev):

     0.1288   3.1835   7.4019  11.2334

     highest occupied level (ev):    15.3037

!    total energy              =     -24.04922614 Ry
     estimated scf accuracy    <          6.1E-09 Ry

     The total energy is the sum of the following terms:
     one-electron contribution =       9.90045473 Ry
     hartree contribution      =       1.79164307 Ry
     xc contribution           =      -8.93299775 Ry
     ewald contribution        =     -26.80832619 Ry

     convergence has been achieved in   7 iterations

     Writing output data file ./tmp/diamond.save/

     init_run     :      0.49s CPU      0.09s WALL (       1 calls)
     electrons    :      5.89s CPU      0.65s WALL (       1 calls)

     Called by init_run:
     wfcinit      :      0.38s CPU      0.04s WALL (       1 calls)
     potinit      :      0.03s CPU      0.02s WALL (       1 calls)
     hinit0       :      0.07s CPU      0.04s WALL (       1 calls)

     Called by electrons:
     c_bands      :      4.70s CPU      0.49s WALL (       7 calls)
     sum_band     :      0.71s CPU      0.08s WALL (       7 calls)
     v_of_rho     :      0.48s CPU      0.09s WALL (       8 calls)
     mix_rho      :      0.02s CPU      0.01s WALL (       7 calls)

     Called by c_bands:
     init_us_2    :      0.16s CPU      0.01s WALL (     150 calls)
     cegterg      :      4.39s CPU      0.46s WALL (      70 calls)

     Called by *egterg:
     cdiaghg      :      0.06s CPU      0.01s WALL (     285 calls)
     h_psi        :      4.38s CPU      0.47s WALL (     295 calls)
     g_psi        :      0.01s CPU      0.00s WALL (     215 calls)

     Called by h_psi:
     h_psi:calbec :      0.41s CPU      0.03s WALL (     295 calls)
     vloc_psi     :      3.52s CPU      0.39s WALL (     295 calls)
     add_vuspsi   :      0.43s CPU      0.04s WALL (     295 calls)

     General routines
     calbec       :      0.41s CPU      0.03s WALL (     295 calls)
     fft          :      0.23s CPU      0.04s WALL (      80 calls)
     ffts         :      0.01s CPU      0.00s WALL (       7 calls)
     fftw         :      3.45s CPU      0.37s WALL (    2294 calls)

     Parallel routines

     PWSCF        :      6.51s CPU      0.82s WALL


   This run was terminated on:  23:37:41  19Dec2023            

=------------------------------------------------------------------------------=
   JOB DONE.
=------------------------------------------------------------------------------=
