
     Program PWSCF v.6.6 starts on 19Dec2023 at 23:38:16 

     This program is part of the open-source Quantum ESPRESSO suite
     for quantum simulation of materials; please cite
         "P. Giannozzi et al., J. Phys.:Condens. Matter 21 395502 (2009);
         "P. Giannozzi et al., J. Phys.:Condens. Matter 29 465901 (2017);
          URL http://www.quantum-espresso.org", 
     in publications or presentations arising from this work. More details at
     http://www.quantum-espresso.org/quote

     Parallel version (MPI), running on     1 processors

     MPI processes distributed on     1 nodes
     Fft bands division:     nmany     =       1
     Reading input from lattice-in_6.84.in

     Current dimensions of program PWSCF are:
     Max number of different atomic species (ntypx) = 10
     Max number of k-points (npk) =  40000
     Max angular momentum in pseudopotentials (lmaxx) =  3

     Subspace diagonalization in iterative solution of the eigenvalue problem:
     a serial algorithm will be used


     G-vector sticks info
     --------------------
     sticks:   dense  smooth     PW     G-vecs:    dense   smooth      PW
     Sum         499     499    151                 6975     6975    1243



     bravais-lattice index     =            2
     lattice parameter (alat)  =       6.8400  a.u.
     unit-cell volume          =      80.0034 (a.u.)^3
     number of atoms/cell      =            2
     number of atomic types    =            1
     number of electrons       =         8.00
     number of Kohn-Sham states=            4
     kinetic-energy cutoff     =      75.0000  Ry
     charge density cutoff     =     300.0000  Ry
     convergence threshold     =      1.0E-08
     mixing beta               =       0.7000
     number of iterations used =            8  plain     mixing
     Exchange-correlation= PBE
                           (   1   4   3   4   0   0   0)

     celldm(1)=   6.840000  celldm(2)=   0.000000  celldm(3)=   0.000000
     celldm(4)=   0.000000  celldm(5)=   0.000000  celldm(6)=   0.000000

     crystal axes: (cart. coord. in units of alat)
               a(1) = (  -0.500000   0.000000   0.500000 )  
               a(2) = (   0.000000   0.500000   0.500000 )  
               a(3) = (  -0.500000   0.500000   0.000000 )  

     reciprocal axes: (cart. coord. in units 2 pi/alat)
               b(1) = ( -1.000000 -1.000000  1.000000 )  
               b(2) = (  1.000000  1.000000  1.000000 )  
               b(3) = ( -1.000000  1.000000 -1.000000 )  


     PseudoPot. # 1 for C  read from file:
     ./C.UPF
     MD5 check sum: ead9220225bd72a2f9a48cc2a638047d
     Pseudo is Norm-conserving + core correction, Zval =  4.0
     Generated using ONCVPSP code by D. R. Hamann
     Using radial grid of 1248 points,  4 beta functions with: 
                l(1) =   0
                l(2) =   0
                l(3) =   1
                l(4) =   1

     atomic species   valence    mass     pseudopotential
        C              4.00    12.01070     C ( 1.00)

     48 Sym. Ops., with inversion, found (24 have fractional translation)



   Cartesian axes

     site n.     atom                  positions (alat units)
         1           C   tau(   1) = (   0.0000000   0.0000000   0.0000000  )
         2           C   tau(   2) = (  -0.2500000   0.2500000   0.2500000  )

     number of k points=    10
                       cart. coord. in units 2pi/alat
        k(    1) = (  -0.1250000   0.1250000   0.1250000), wk =   0.0625000
        k(    2) = (  -0.3750000   0.3750000  -0.1250000), wk =   0.1875000
        k(    3) = (   0.3750000  -0.3750000   0.6250000), wk =   0.1875000
        k(    4) = (   0.1250000  -0.1250000   0.3750000), wk =   0.1875000
        k(    5) = (  -0.1250000   0.6250000   0.1250000), wk =   0.1875000
        k(    6) = (   0.6250000  -0.1250000   0.8750000), wk =   0.3750000
        k(    7) = (   0.3750000   0.1250000   0.6250000), wk =   0.3750000
        k(    8) = (  -0.1250000  -0.8750000   0.1250000), wk =   0.1875000
        k(    9) = (  -0.3750000   0.3750000   0.3750000), wk =   0.0625000
        k(   10) = (   0.3750000  -0.3750000   1.1250000), wk =   0.1875000

     Dense  grid:     6975 G-vectors     FFT dimensions: (  32,  32,  32)

     Estimated max dynamical RAM per process >       6.57 MB

     Initial potential from superposition of free atoms

     starting charge    7.99991, renormalised to    8.00000
     Starting wfcs are    8 randomized atomic wfcs

     total cpu time spent up to now is        0.2 secs

     Self-consistent Calculation

     iteration #  1     ecut=    75.00 Ry     beta= 0.70
     Davidson diagonalization with overlap
     ethr =  1.00E-02,  avg # of iterations =  2.0

     total cpu time spent up to now is        0.3 secs

     total energy              =     -24.06653872 Ry
     estimated scf accuracy    <       0.09732867 Ry

     iteration #  2     ecut=    75.00 Ry     beta= 0.70
     Davidson diagonalization with overlap
     ethr =  1.22E-03,  avg # of iterations =  1.3

     total cpu time spent up to now is        0.3 secs

     total energy              =     -24.07227092 Ry
     estimated scf accuracy    <       0.00351491 Ry

     iteration #  3     ecut=    75.00 Ry     beta= 0.70
     Davidson diagonalization with overlap
     ethr =  4.39E-05,  avg # of iterations =  2.9

     total cpu time spent up to now is        0.4 secs

     total energy              =     -24.07365029 Ry
     estimated scf accuracy    <       0.00008219 Ry

     iteration #  4     ecut=    75.00 Ry     beta= 0.70
     Davidson diagonalization with overlap
     ethr =  1.03E-06,  avg # of iterations =  5.2

     total cpu time spent up to now is        0.6 secs

     total energy              =     -24.07375488 Ry
     estimated scf accuracy    <       0.00001210 Ry

     iteration #  5     ecut=    75.00 Ry     beta= 0.70
     Davidson diagonalization with overlap
     ethr =  1.51E-07,  avg # of iterations =  2.6

     total cpu time spent up to now is        0.7 secs

     total energy              =     -24.07375836 Ry
     estimated scf accuracy    <       0.00000085 Ry

     iteration #  6     ecut=    75.00 Ry     beta= 0.70
     Davidson diagonalization with overlap
     ethr =  1.06E-08,  avg # of iterations =  3.4

     total cpu time spent up to now is        0.8 secs

     total energy              =     -24.07375867 Ry
     estimated scf accuracy    <       0.00000001 Ry

     iteration #  7     ecut=    75.00 Ry     beta= 0.70
     Davidson diagonalization with overlap
     ethr =  1.65E-10,  avg # of iterations =  4.5

     total cpu time spent up to now is        0.9 secs

     End of self-consistent calculation

          k =-0.1250 0.1250 0.1250 (   893 PWs)   bands (ev):

    -7.9100  10.2385  11.9519  11.9519

          k =-0.3750 0.3750-0.1250 (   877 PWs)   bands (ev):

    -5.7173   5.0380   8.3647  10.8028

          k = 0.3750-0.3750 0.6250 (   877 PWs)   bands (ev):

    -2.8298   0.4323   8.5541   9.1871

          k = 0.1250-0.1250 0.3750 (   879 PWs)   bands (ev):

    -6.8025   7.6365   9.8233  10.5909

          k =-0.1250 0.6250 0.1250 (   874 PWs)   bands (ev):

    -4.6344   5.2296   7.5286   7.9192

          k = 0.6250-0.1250 0.8750 (   880 PWs)   bands (ev):

    -0.8529   1.6724   4.4867   6.4920

          k = 0.3750 0.1250 0.6250 (   876 PWs)   bands (ev):

    -3.6240   3.0067   6.5027   8.6534

          k =-0.1250-0.8750 0.1250 (   877 PWs)   bands (ev):

    -1.5396   2.1211   5.5338   6.8864

          k =-0.3750 0.3750 0.3750 (   872 PWs)   bands (ev):

    -4.6744   2.2284  10.1411  10.1411

          k = 0.3750-0.3750 1.1250 (   871 PWs)   bands (ev):

    -1.8603   1.3397   5.0935   8.5370

     highest occupied level (ev):    11.9519

!    total energy              =     -24.07375869 Ry
     estimated scf accuracy    <          1.0E-09 Ry

     The total energy is the sum of the following terms:
     one-electron contribution =       7.75504867 Ry
     hartree contribution      =       1.97783131 Ry
     xc contribution           =      -8.60524430 Ry
     ewald contribution        =     -25.20139436 Ry

     convergence has been achieved in   7 iterations

     Writing output data file ./tmp/diamond.save/

     init_run     :      0.47s CPU      0.10s WALL (       1 calls)
     electrons    :      6.18s CPU      0.75s WALL (       1 calls)

     Called by init_run:
     wfcinit      :      0.37s CPU      0.05s WALL (       1 calls)
     potinit      :      0.02s CPU      0.01s WALL (       1 calls)
     hinit0       :      0.07s CPU      0.04s WALL (       1 calls)

     Called by electrons:
     c_bands      :      5.30s CPU      0.57s WALL (       7 calls)
     sum_band     :      0.71s CPU      0.08s WALL (       7 calls)
     v_of_rho     :      0.17s CPU      0.09s WALL (       8 calls)
     mix_rho      :      0.01s CPU      0.01s WALL (       7 calls)

     Called by c_bands:
     init_us_2    :      0.10s CPU      0.01s WALL (     150 calls)
     cegterg      :      5.08s CPU      0.55s WALL (      70 calls)

     Called by *egterg:
     cdiaghg      :      0.12s CPU      0.01s WALL (     289 calls)
     h_psi        :      5.06s CPU      0.56s WALL (     299 calls)
     g_psi        :      0.02s CPU      0.00s WALL (     219 calls)

     Called by h_psi:
     h_psi:calbec :      0.85s CPU      0.10s WALL (     299 calls)
     vloc_psi     :      3.55s CPU      0.39s WALL (     299 calls)
     add_vuspsi   :      0.66s CPU      0.06s WALL (     299 calls)

     General routines
     calbec       :      0.85s CPU      0.10s WALL (     299 calls)
     fft          :      0.08s CPU      0.04s WALL (      80 calls)
     ffts         :      0.01s CPU      0.00s WALL (       7 calls)
     fftw         :      3.45s CPU      0.38s WALL (    2314 calls)

     Parallel routines

     PWSCF        :      6.79s CPU      0.93s WALL


   This run was terminated on:  23:38:17  19Dec2023            

=------------------------------------------------------------------------------=
   JOB DONE.
=------------------------------------------------------------------------------=
