
     Program PWSCF v.6.6 starts on  5Jan2024 at 15:13:22 

     This program is part of the open-source Quantum ESPRESSO suite
     for quantum simulation of materials; please cite
         "P. Giannozzi et al., J. Phys.:Condens. Matter 21 395502 (2009);
         "P. Giannozzi et al., J. Phys.:Condens. Matter 29 465901 (2017);
          URL http://www.quantum-espresso.org", 
     in publications or presentations arising from this work. More details at
     http://www.quantum-espresso.org/quote

     Parallel version (MPI), running on     1 processors

     MPI processes distributed on     1 nodes
     Fft bands division:     nmany     =       1
     Reading input from lattice-in_6.45.in

     Current dimensions of program PWSCF are:
     Max number of different atomic species (ntypx) = 10
     Max number of k-points (npk) =  40000
     Max angular momentum in pseudopotentials (lmaxx) =  3

     Subspace diagonalization in iterative solution of the eigenvalue problem:
     a serial algorithm will be used


     G-vector sticks info
     --------------------
     sticks:   dense  smooth     PW     G-vecs:    dense   smooth      PW
     Sum         433     433    139                 5961     5961    1067



     bravais-lattice index     =            2
     lattice parameter (alat)  =       6.4500  a.u.
     unit-cell volume          =      67.0840 (a.u.)^3
     number of atoms/cell      =            2
     number of atomic types    =            1
     number of electrons       =         8.00
     number of Kohn-Sham states=            4
     kinetic-energy cutoff     =      75.0000  Ry
     charge density cutoff     =     300.0000  Ry
     convergence threshold     =      1.0E-08
     mixing beta               =       0.7000
     number of iterations used =            8  plain     mixing
     Exchange-correlation= PBE
                           (   1   4   3   4   0   0   0)

     celldm(1)=   6.450000  celldm(2)=   0.000000  celldm(3)=   0.000000
     celldm(4)=   0.000000  celldm(5)=   0.000000  celldm(6)=   0.000000

     crystal axes: (cart. coord. in units of alat)
               a(1) = (  -0.500000   0.000000   0.500000 )  
               a(2) = (   0.000000   0.500000   0.500000 )  
               a(3) = (  -0.500000   0.500000   0.000000 )  

     reciprocal axes: (cart. coord. in units 2 pi/alat)
               b(1) = ( -1.000000 -1.000000  1.000000 )  
               b(2) = (  1.000000  1.000000  1.000000 )  
               b(3) = ( -1.000000  1.000000 -1.000000 )  


     PseudoPot. # 1 for C  read from file:
     ./C.UPF
     MD5 check sum: ead9220225bd72a2f9a48cc2a638047d
     Pseudo is Norm-conserving + core correction, Zval =  4.0
     Generated using ONCVPSP code by D. R. Hamann
     Using radial grid of 1248 points,  4 beta functions with: 
                l(1) =   0
                l(2) =   0
                l(3) =   1
                l(4) =   1

     atomic species   valence    mass     pseudopotential
        C              4.00    12.01070     C ( 1.00)

     48 Sym. Ops., with inversion, found (24 have fractional translation)



   Cartesian axes

     site n.     atom                  positions (alat units)
         1           C   tau(   1) = (   0.0000000   0.0000000   0.0000000  )
         2           C   tau(   2) = (  -0.2500000   0.2500000   0.2500000  )

     number of k points=    10
                       cart. coord. in units 2pi/alat
        k(    1) = (  -0.1250000   0.1250000   0.1250000), wk =   0.0625000
        k(    2) = (  -0.3750000   0.3750000  -0.1250000), wk =   0.1875000
        k(    3) = (   0.3750000  -0.3750000   0.6250000), wk =   0.1875000
        k(    4) = (   0.1250000  -0.1250000   0.3750000), wk =   0.1875000
        k(    5) = (  -0.1250000   0.6250000   0.1250000), wk =   0.1875000
        k(    6) = (   0.6250000  -0.1250000   0.8750000), wk =   0.3750000
        k(    7) = (   0.3750000   0.1250000   0.6250000), wk =   0.3750000
        k(    8) = (  -0.1250000  -0.8750000   0.1250000), wk =   0.1875000
        k(    9) = (  -0.3750000   0.3750000   0.3750000), wk =   0.0625000
        k(   10) = (   0.3750000  -0.3750000   1.1250000), wk =   0.1875000

     Dense  grid:     5961 G-vectors     FFT dimensions: (  32,  32,  32)

     Estimated max dynamical RAM per process >       5.98 MB

     Initial potential from superposition of free atoms

     starting charge    7.99991, renormalised to    8.00000
     Starting wfcs are    8 randomized atomic wfcs

     total cpu time spent up to now is        0.2 secs

     Self-consistent Calculation

     iteration #  1     ecut=    75.00 Ry     beta= 0.70
     Davidson diagonalization with overlap
     ethr =  1.00E-02,  avg # of iterations =  2.0

     total cpu time spent up to now is        0.3 secs

     total energy              =     -24.04235172 Ry
     estimated scf accuracy    <       0.14466106 Ry

     iteration #  2     ecut=    75.00 Ry     beta= 0.70
     Davidson diagonalization with overlap
     ethr =  1.81E-03,  avg # of iterations =  1.2

     total cpu time spent up to now is        0.4 secs

     total energy              =     -24.05059408 Ry
     estimated scf accuracy    <       0.00452207 Ry

     iteration #  3     ecut=    75.00 Ry     beta= 0.70
     Davidson diagonalization with overlap
     ethr =  5.65E-05,  avg # of iterations =  3.0

     total cpu time spent up to now is        0.6 secs

     total energy              =     -24.05247147 Ry
     estimated scf accuracy    <       0.00009763 Ry

     iteration #  4     ecut=    75.00 Ry     beta= 0.70
     Davidson diagonalization with overlap
     ethr =  1.22E-06,  avg # of iterations =  4.6

     total cpu time spent up to now is        0.9 secs

     total energy              =     -24.05256683 Ry
     estimated scf accuracy    <       0.00001571 Ry

     iteration #  5     ecut=    75.00 Ry     beta= 0.70
     Davidson diagonalization with overlap
     ethr =  1.96E-07,  avg # of iterations =  2.3

     total cpu time spent up to now is        1.1 secs

     total energy              =     -24.05257074 Ry
     estimated scf accuracy    <       0.00000125 Ry

     iteration #  6     ecut=    75.00 Ry     beta= 0.70
     Davidson diagonalization with overlap
     ethr =  1.56E-08,  avg # of iterations =  3.0

     total cpu time spent up to now is        1.2 secs

     total energy              =     -24.05257105 Ry
     estimated scf accuracy    <       0.00000002 Ry

     iteration #  7     ecut=    75.00 Ry     beta= 0.70
     Davidson diagonalization with overlap
     ethr =  2.14E-10,  avg # of iterations =  4.9

     total cpu time spent up to now is        1.4 secs

     End of self-consistent calculation

          k =-0.1250 0.1250 0.1250 (   728 PWs)   bands (ev):

    -7.0061  13.1947  15.1230  15.1230

          k =-0.3750 0.3750-0.1250 (   737 PWs)   bands (ev):

    -4.5225   7.3377  10.9876  13.7903

          k = 0.3750-0.3750 0.6250 (   738 PWs)   bands (ev):

    -1.0756   1.9527  11.2740  11.8640

          k = 0.1250-0.1250 0.3750 (   738 PWs)   bands (ev):

    -5.7561  10.2673  12.5747  13.6834

          k =-0.1250 0.6250 0.1250 (   734 PWs)   bands (ev):

    -3.2982   7.7301  10.0800  10.3396

          k = 0.6250-0.1250 0.8750 (   731 PWs)   bands (ev):

     1.1517   3.7689   6.4163   8.6268

          k = 0.3750 0.1250 0.6250 (   734 PWs)   bands (ev):

    -2.1205   5.0772   8.9066  11.2455

          k =-0.1250-0.8750 0.1250 (   737 PWs)   bands (ev):

     0.2382   4.4523   7.5120   9.1355

          k =-0.3750 0.3750 0.3750 (   748 PWs)   bands (ev):

    -3.3137   4.1152  13.0050  13.0050

          k = 0.3750-0.3750 1.1250 (   728 PWs)   bands (ev):

     0.0222   3.0851   7.2758  11.0880

     highest occupied level (ev):    15.1230

!    total energy              =     -24.05257108 Ry
     estimated scf accuracy    <          3.2E-09 Ry

     The total energy is the sum of the following terms:
     one-electron contribution =       9.78773251 Ry
     hartree contribution      =       1.80064128 Ry
     xc contribution           =      -8.91574527 Ry
     ewald contribution        =     -26.72519960 Ry

     convergence has been achieved in   7 iterations

     Writing output data file ./tmp/diamond.save/

     init_run     :      0.64s CPU      0.12s WALL (       1 calls)
     electrons    :      8.76s CPU      1.18s WALL (       1 calls)

     Called by init_run:
     wfcinit      :      0.53s CPU      0.07s WALL (       1 calls)
     potinit      :      0.02s CPU      0.01s WALL (       1 calls)
     hinit0       :      0.08s CPU      0.04s WALL (       1 calls)

     Called by electrons:
     c_bands      :      7.89s CPU      1.02s WALL (       7 calls)
     sum_band     :      0.42s CPU      0.07s WALL (       7 calls)
     v_of_rho     :      0.43s CPU      0.09s WALL (       8 calls)
     mix_rho      :      0.02s CPU      0.01s WALL (       7 calls)

     Called by c_bands:
     init_us_2    :      0.10s CPU      0.01s WALL (     150 calls)
     cegterg      :      7.70s CPU      0.99s WALL (      70 calls)

     Called by *egterg:
     cdiaghg      :      0.04s CPU      0.01s WALL (     280 calls)
     h_psi        :      7.90s CPU      1.02s WALL (     290 calls)
     g_psi        :      0.01s CPU      0.00s WALL (     210 calls)

     Called by h_psi:
     h_psi:calbec :      2.40s CPU      0.29s WALL (     290 calls)
     vloc_psi     :      3.12s CPU      0.42s WALL (     290 calls)
     add_vuspsi   :      2.37s CPU      0.30s WALL (     290 calls)

     General routines
     calbec       :      2.39s CPU      0.29s WALL (     290 calls)
     fft          :      0.11s CPU      0.03s WALL (      80 calls)
     ffts         :      0.01s CPU      0.00s WALL (       7 calls)
     fftw         :      2.90s CPU      0.40s WALL (    2298 calls)

     Parallel routines

     PWSCF        :      9.52s CPU      1.39s WALL


   This run was terminated on:  15:13:23   5Jan2024            

=------------------------------------------------------------------------------=
   JOB DONE.
=------------------------------------------------------------------------------=
