
     Program PWSCF v.6.6 starts on 19Dec2023 at 23:38: 5 

     This program is part of the open-source Quantum ESPRESSO suite
     for quantum simulation of materials; please cite
         "P. Giannozzi et al., J. Phys.:Condens. Matter 21 395502 (2009);
         "P. Giannozzi et al., J. Phys.:Condens. Matter 29 465901 (2017);
          URL http://www.quantum-espresso.org", 
     in publications or presentations arising from this work. More details at
     http://www.quantum-espresso.org/quote

     Parallel version (MPI), running on     1 processors

     MPI processes distributed on     1 nodes
     Fft bands division:     nmany     =       1
     Reading input from lattice-in_6.72.in

     Current dimensions of program PWSCF are:
     Max number of different atomic species (ntypx) = 10
     Max number of k-points (npk) =  40000
     Max angular momentum in pseudopotentials (lmaxx) =  3

     Subspace diagonalization in iterative solution of the eigenvalue problem:
     a serial algorithm will be used


     G-vector sticks info
     --------------------
     sticks:   dense  smooth     PW     G-vecs:    dense   smooth      PW
     Sum         463     463    151                 6615     6615    1243



     bravais-lattice index     =            2
     lattice parameter (alat)  =       6.7200  a.u.
     unit-cell volume          =      75.8661 (a.u.)^3
     number of atoms/cell      =            2
     number of atomic types    =            1
     number of electrons       =         8.00
     number of Kohn-Sham states=            4
     kinetic-energy cutoff     =      75.0000  Ry
     charge density cutoff     =     300.0000  Ry
     convergence threshold     =      1.0E-08
     mixing beta               =       0.7000
     number of iterations used =            8  plain     mixing
     Exchange-correlation= PBE
                           (   1   4   3   4   0   0   0)

     celldm(1)=   6.720000  celldm(2)=   0.000000  celldm(3)=   0.000000
     celldm(4)=   0.000000  celldm(5)=   0.000000  celldm(6)=   0.000000

     crystal axes: (cart. coord. in units of alat)
               a(1) = (  -0.500000   0.000000   0.500000 )  
               a(2) = (   0.000000   0.500000   0.500000 )  
               a(3) = (  -0.500000   0.500000   0.000000 )  

     reciprocal axes: (cart. coord. in units 2 pi/alat)
               b(1) = ( -1.000000 -1.000000  1.000000 )  
               b(2) = (  1.000000  1.000000  1.000000 )  
               b(3) = ( -1.000000  1.000000 -1.000000 )  


     PseudoPot. # 1 for C  read from file:
     ./C.UPF
     MD5 check sum: ead9220225bd72a2f9a48cc2a638047d
     Pseudo is Norm-conserving + core correction, Zval =  4.0
     Generated using ONCVPSP code by D. R. Hamann
     Using radial grid of 1248 points,  4 beta functions with: 
                l(1) =   0
                l(2) =   0
                l(3) =   1
                l(4) =   1

     atomic species   valence    mass     pseudopotential
        C              4.00    12.01070     C ( 1.00)

     48 Sym. Ops., with inversion, found (24 have fractional translation)



   Cartesian axes

     site n.     atom                  positions (alat units)
         1           C   tau(   1) = (   0.0000000   0.0000000   0.0000000  )
         2           C   tau(   2) = (  -0.2500000   0.2500000   0.2500000  )

     number of k points=    10
                       cart. coord. in units 2pi/alat
        k(    1) = (  -0.1250000   0.1250000   0.1250000), wk =   0.0625000
        k(    2) = (  -0.3750000   0.3750000  -0.1250000), wk =   0.1875000
        k(    3) = (   0.3750000  -0.3750000   0.6250000), wk =   0.1875000
        k(    4) = (   0.1250000  -0.1250000   0.3750000), wk =   0.1875000
        k(    5) = (  -0.1250000   0.6250000   0.1250000), wk =   0.1875000
        k(    6) = (   0.6250000  -0.1250000   0.8750000), wk =   0.3750000
        k(    7) = (   0.3750000   0.1250000   0.6250000), wk =   0.3750000
        k(    8) = (  -0.1250000  -0.8750000   0.1250000), wk =   0.1875000
        k(    9) = (  -0.3750000   0.3750000   0.3750000), wk =   0.0625000
        k(   10) = (   0.3750000  -0.3750000   1.1250000), wk =   0.1875000

     Dense  grid:     6615 G-vectors     FFT dimensions: (  32,  32,  32)

     Estimated max dynamical RAM per process >       6.37 MB

     Initial potential from superposition of free atoms

     starting charge    7.99991, renormalised to    8.00000
     Starting wfcs are    8 randomized atomic wfcs

     total cpu time spent up to now is        0.2 secs

     Self-consistent Calculation

     iteration #  1     ecut=    75.00 Ry     beta= 0.70
     Davidson diagonalization with overlap
     ethr =  1.00E-02,  avg # of iterations =  2.0

     total cpu time spent up to now is        0.2 secs

     total energy              =     -24.06710853 Ry
     estimated scf accuracy    <       0.11034641 Ry

     iteration #  2     ecut=    75.00 Ry     beta= 0.70
     Davidson diagonalization with overlap
     ethr =  1.38E-03,  avg # of iterations =  1.3

     total cpu time spent up to now is        0.3 secs

     total energy              =     -24.07363877 Ry
     estimated scf accuracy    <       0.00376475 Ry

     iteration #  3     ecut=    75.00 Ry     beta= 0.70
     Davidson diagonalization with overlap
     ethr =  4.71E-05,  avg # of iterations =  3.0

     total cpu time spent up to now is        0.4 secs

     total energy              =     -24.07515017 Ry
     estimated scf accuracy    <       0.00008687 Ry

     iteration #  4     ecut=    75.00 Ry     beta= 0.70
     Davidson diagonalization with overlap
     ethr =  1.09E-06,  avg # of iterations =  5.0

     total cpu time spent up to now is        0.5 secs

     total energy              =     -24.07525180 Ry
     estimated scf accuracy    <       0.00001389 Ry

     iteration #  5     ecut=    75.00 Ry     beta= 0.70
     Davidson diagonalization with overlap
     ethr =  1.74E-07,  avg # of iterations =  2.6

     total cpu time spent up to now is        0.6 secs

     total energy              =     -24.07525529 Ry
     estimated scf accuracy    <       0.00000072 Ry

     iteration #  6     ecut=    75.00 Ry     beta= 0.70
     Davidson diagonalization with overlap
     ethr =  8.97E-09,  avg # of iterations =  3.5

     total cpu time spent up to now is        0.7 secs

     total energy              =     -24.07525557 Ry
     estimated scf accuracy    <       0.00000002 Ry

     iteration #  7     ecut=    75.00 Ry     beta= 0.70
     Davidson diagonalization with overlap
     ethr =  1.91E-10,  avg # of iterations =  4.8

     total cpu time spent up to now is        0.8 secs

     End of self-consistent calculation

          k =-0.1250 0.1250 0.1250 (   851 PWs)   bands (ev):

    -7.6541  11.0899  12.8620  12.8620

          k =-0.3750 0.3750-0.1250 (   835 PWs)   bands (ev):

    -5.3751   5.7008   9.1167  11.6600

          k = 0.3750-0.3750 0.6250 (   826 PWs)   bands (ev):

    -2.3242   0.8674   9.3342   9.9555

          k = 0.1250-0.1250 0.3750 (   842 PWs)   bands (ev):

    -6.5044   8.3964  10.6134  11.4769

          k =-0.1250 0.6250 0.1250 (   833 PWs)   bands (ev):

    -4.2509   5.9570   8.2540   8.6142

          k = 0.6250-0.1250 0.8750 (   830 PWs)   bands (ev):

    -0.2753   2.2835   5.0312   7.1047

          k = 0.3750 0.1250 0.6250 (   829 PWs)   bands (ev):

    -3.1906   3.6049   7.1896   9.3964

          k =-0.1250-0.8750 0.1250 (   822 PWs)   bands (ev):

    -1.0267   2.7928   6.1010   7.5321

          k =-0.3750 0.3750 0.3750 (   832 PWs)   bands (ev):

    -4.2827   2.7684  10.9628  10.9628

          k = 0.3750-0.3750 1.1250 (   833 PWs)   bands (ev):

    -1.3178   1.8461   5.7136   9.2691

     highest occupied level (ev):    12.8620

!    total energy              =     -24.07525559 Ry
     estimated scf accuracy    <          4.8E-09 Ry

     The total energy is the sum of the following terms:
     one-electron contribution =       8.34917330 Ry
     hartree contribution      =       1.92260252 Ry
     xc contribution           =      -8.69561215 Ry
     ewald contribution        =     -25.65141926 Ry

     convergence has been achieved in   7 iterations

     Writing output data file ./tmp/diamond.save/

     init_run     :      0.45s CPU      0.10s WALL (       1 calls)
     electrons    :      5.89s CPU      0.67s WALL (       1 calls)

     Called by init_run:
     wfcinit      :      0.34s CPU      0.04s WALL (       1 calls)
     potinit      :      0.02s CPU      0.01s WALL (       1 calls)
     hinit0       :      0.08s CPU      0.04s WALL (       1 calls)

     Called by electrons:
     c_bands      :      4.98s CPU      0.50s WALL (       7 calls)
     sum_band     :      0.57s CPU      0.08s WALL (       7 calls)
     v_of_rho     :      0.27s CPU      0.09s WALL (       8 calls)
     mix_rho      :      0.07s CPU      0.01s WALL (       7 calls)

     Called by c_bands:
     init_us_2    :      0.09s CPU      0.01s WALL (     150 calls)
     cegterg      :      4.79s CPU      0.48s WALL (      70 calls)

     Called by *egterg:
     cdiaghg      :      0.04s CPU      0.01s WALL (     292 calls)
     h_psi        :      4.87s CPU      0.48s WALL (     302 calls)
     g_psi        :      0.03s CPU      0.00s WALL (     222 calls)

     Called by h_psi:
     h_psi:calbec :      0.45s CPU      0.04s WALL (     302 calls)
     vloc_psi     :      3.93s CPU      0.40s WALL (     302 calls)
     add_vuspsi   :      0.48s CPU      0.05s WALL (     302 calls)

     General routines
     calbec       :      0.45s CPU      0.04s WALL (     302 calls)
     fft          :      0.15s CPU      0.04s WALL (      80 calls)
     ffts         :      0.02s CPU      0.00s WALL (       7 calls)
     fftw         :      3.78s CPU      0.38s WALL (    2328 calls)

     Parallel routines

     PWSCF        :      6.56s CPU      0.84s WALL


   This run was terminated on:  23:38: 6  19Dec2023            

=------------------------------------------------------------------------------=
   JOB DONE.
=------------------------------------------------------------------------------=
