
     Program PWSCF v.6.6 starts on  5Jan2024 at 15:14:12 

     This program is part of the open-source Quantum ESPRESSO suite
     for quantum simulation of materials; please cite
         "P. Giannozzi et al., J. Phys.:Condens. Matter 21 395502 (2009);
         "P. Giannozzi et al., J. Phys.:Condens. Matter 29 465901 (2017);
          URL http://www.quantum-espresso.org", 
     in publications or presentations arising from this work. More details at
     http://www.quantum-espresso.org/quote

     Parallel version (MPI), running on     1 processors

     MPI processes distributed on     1 nodes
     Fft bands division:     nmany     =       1
     Reading input from lattice-in_6.78.in

     Current dimensions of program PWSCF are:
     Max number of different atomic species (ntypx) = 10
     Max number of k-points (npk) =  40000
     Max angular momentum in pseudopotentials (lmaxx) =  3

     Subspace diagonalization in iterative solution of the eigenvalue problem:
     a serial algorithm will be used


     G-vector sticks info
     --------------------
     sticks:   dense  smooth     PW     G-vecs:    dense   smooth      PW
     Sum         475     475    151                 6855     6855    1243



     bravais-lattice index     =            2
     lattice parameter (alat)  =       6.7800  a.u.
     unit-cell volume          =      77.9164 (a.u.)^3
     number of atoms/cell      =            2
     number of atomic types    =            1
     number of electrons       =         8.00
     number of Kohn-Sham states=            4
     kinetic-energy cutoff     =      75.0000  Ry
     charge density cutoff     =     300.0000  Ry
     convergence threshold     =      1.0E-08
     mixing beta               =       0.7000
     number of iterations used =            8  plain     mixing
     Exchange-correlation= PBE
                           (   1   4   3   4   0   0   0)

     celldm(1)=   6.780000  celldm(2)=   0.000000  celldm(3)=   0.000000
     celldm(4)=   0.000000  celldm(5)=   0.000000  celldm(6)=   0.000000

     crystal axes: (cart. coord. in units of alat)
               a(1) = (  -0.500000   0.000000   0.500000 )  
               a(2) = (   0.000000   0.500000   0.500000 )  
               a(3) = (  -0.500000   0.500000   0.000000 )  

     reciprocal axes: (cart. coord. in units 2 pi/alat)
               b(1) = ( -1.000000 -1.000000  1.000000 )  
               b(2) = (  1.000000  1.000000  1.000000 )  
               b(3) = ( -1.000000  1.000000 -1.000000 )  


     PseudoPot. # 1 for C  read from file:
     ./C.UPF
     MD5 check sum: ead9220225bd72a2f9a48cc2a638047d
     Pseudo is Norm-conserving + core correction, Zval =  4.0
     Generated using ONCVPSP code by D. R. Hamann
     Using radial grid of 1248 points,  4 beta functions with: 
                l(1) =   0
                l(2) =   0
                l(3) =   1
                l(4) =   1

     atomic species   valence    mass     pseudopotential
        C              4.00    12.01070     C ( 1.00)

     48 Sym. Ops., with inversion, found (24 have fractional translation)



   Cartesian axes

     site n.     atom                  positions (alat units)
         1           C   tau(   1) = (   0.0000000   0.0000000   0.0000000  )
         2           C   tau(   2) = (  -0.2500000   0.2500000   0.2500000  )

     number of k points=    10
                       cart. coord. in units 2pi/alat
        k(    1) = (  -0.1250000   0.1250000   0.1250000), wk =   0.0625000
        k(    2) = (  -0.3750000   0.3750000  -0.1250000), wk =   0.1875000
        k(    3) = (   0.3750000  -0.3750000   0.6250000), wk =   0.1875000
        k(    4) = (   0.1250000  -0.1250000   0.3750000), wk =   0.1875000
        k(    5) = (  -0.1250000   0.6250000   0.1250000), wk =   0.1875000
        k(    6) = (   0.6250000  -0.1250000   0.8750000), wk =   0.3750000
        k(    7) = (   0.3750000   0.1250000   0.6250000), wk =   0.3750000
        k(    8) = (  -0.1250000  -0.8750000   0.1250000), wk =   0.1875000
        k(    9) = (  -0.3750000   0.3750000   0.3750000), wk =   0.0625000
        k(   10) = (   0.3750000  -0.3750000   1.1250000), wk =   0.1875000

     Dense  grid:     6855 G-vectors     FFT dimensions: (  32,  32,  32)

     Estimated max dynamical RAM per process >       6.49 MB

     Initial potential from superposition of free atoms

     starting charge    7.99991, renormalised to    8.00000
     Starting wfcs are    8 randomized atomic wfcs

     total cpu time spent up to now is        0.2 secs

     Self-consistent Calculation

     iteration #  1     ecut=    75.00 Ry     beta= 0.70
     Davidson diagonalization with overlap
     ethr =  1.00E-02,  avg # of iterations =  2.0

     total cpu time spent up to now is        0.3 secs

     total energy              =     -24.06758574 Ry
     estimated scf accuracy    <       0.10384584 Ry

     iteration #  2     ecut=    75.00 Ry     beta= 0.70
     Davidson diagonalization with overlap
     ethr =  1.30E-03,  avg # of iterations =  1.3

     total cpu time spent up to now is        0.3 secs

     total energy              =     -24.07374348 Ry
     estimated scf accuracy    <       0.00361336 Ry

     iteration #  3     ecut=    75.00 Ry     beta= 0.70
     Davidson diagonalization with overlap
     ethr =  4.52E-05,  avg # of iterations =  3.1

     total cpu time spent up to now is        0.6 secs

     total energy              =     -24.07518574 Ry
     estimated scf accuracy    <       0.00008421 Ry

     iteration #  4     ecut=    75.00 Ry     beta= 0.70
     Davidson diagonalization with overlap
     ethr =  1.05E-06,  avg # of iterations =  5.2

     total cpu time spent up to now is        1.0 secs

     total energy              =     -24.07528364 Ry
     estimated scf accuracy    <       0.00001276 Ry

     iteration #  5     ecut=    75.00 Ry     beta= 0.70
     Davidson diagonalization with overlap
     ethr =  1.59E-07,  avg # of iterations =  2.3

     total cpu time spent up to now is        1.1 secs

     total energy              =     -24.07528657 Ry
     estimated scf accuracy    <       0.00000081 Ry

     iteration #  6     ecut=    75.00 Ry     beta= 0.70
     Davidson diagonalization with overlap
     ethr =  1.02E-08,  avg # of iterations =  3.2

     total cpu time spent up to now is        1.2 secs

     total energy              =     -24.07528681 Ry
     estimated scf accuracy    <       0.00000002 Ry

     iteration #  7     ecut=    75.00 Ry     beta= 0.70
     Davidson diagonalization with overlap
     ethr =  2.14E-10,  avg # of iterations =  4.8

     total cpu time spent up to now is        1.4 secs

     End of self-consistent calculation

          k =-0.1250 0.1250 0.1250 (   875 PWs)   bands (ev):

    -7.7845  10.6581  12.3997  12.3997

          k =-0.3750 0.3750-0.1250 (   857 PWs)   bands (ev):

    -5.5490   5.3646   8.7347  11.2246

          k = 0.3750-0.3750 0.6250 (   852 PWs)   bands (ev):

    -2.5808   0.6464   8.9379   9.5653

          k = 0.1250-0.1250 0.3750 (   862 PWs)   bands (ev):

    -6.6561   8.0111  10.2121  11.0268

          k =-0.1250 0.6250 0.1250 (   853 PWs)   bands (ev):

    -4.4457   5.5887   7.8849   8.2613

          k = 0.6250-0.1250 0.8750 (   854 PWs)   bands (ev):

    -0.5685   1.9741   4.7538   6.7936

          k = 0.3750 0.1250 0.6250 (   855 PWs)   bands (ev):

    -3.4106   3.3016   6.8403   9.0190

          k =-0.1250-0.8750 0.1250 (   850 PWs)   bands (ev):

    -1.2869   2.4519   5.8129   7.2041

          k =-0.3750 0.3750 0.3750 (   857 PWs)   bands (ev):

    -4.4816   2.4940  10.5455  10.5455

          k = 0.3750-0.3750 1.1250 (   850 PWs)   bands (ev):

    -1.5932   1.5897   5.3980   8.8974

     highest occupied level (ev):    12.3997

!    total energy              =     -24.07528683 Ry
     estimated scf accuracy    <          3.6E-09 Ry

     The total energy is the sum of the following terms:
     one-electron contribution =       8.04884468 Ry
     hartree contribution      =       1.95018834 Ry
     xc contribution           =      -8.64990431 Ry
     ewald contribution        =     -25.42441555 Ry

     convergence has been achieved in   7 iterations

     Writing output data file ./tmp/diamond.save/

     init_run     :      0.44s CPU      0.11s WALL (       1 calls)
     electrons    :      8.76s CPU      1.21s WALL (       1 calls)

     Called by init_run:
     wfcinit      :      0.35s CPU      0.06s WALL (       1 calls)
     potinit      :      0.02s CPU      0.01s WALL (       1 calls)
     hinit0       :      0.06s CPU      0.04s WALL (       1 calls)

     Called by electrons:
     c_bands      :      8.11s CPU      1.04s WALL (       7 calls)
     sum_band     :      0.40s CPU      0.08s WALL (       7 calls)
     v_of_rho     :      0.23s CPU      0.09s WALL (       8 calls)
     mix_rho      :      0.01s CPU      0.01s WALL (       7 calls)

     Called by c_bands:
     init_us_2    :      0.08s CPU      0.01s WALL (     150 calls)
     cegterg      :      7.95s CPU      1.02s WALL (      70 calls)

     Called by *egterg:
     cdiaghg      :      0.09s CPU      0.01s WALL (     289 calls)
     h_psi        :      8.03s CPU      1.03s WALL (     299 calls)
     g_psi        :      0.01s CPU      0.00s WALL (     219 calls)

     Called by h_psi:
     h_psi:calbec :      3.10s CPU      0.39s WALL (     299 calls)
     vloc_psi     :      2.68s CPU      0.38s WALL (     299 calls)
     add_vuspsi   :      2.20s CPU      0.26s WALL (     299 calls)

     General routines
     calbec       :      3.10s CPU      0.39s WALL (     299 calls)
     fft          :      0.13s CPU      0.04s WALL (      80 calls)
     ffts         :      0.00s CPU      0.00s WALL (       7 calls)
     fftw         :      2.56s CPU      0.37s WALL (    2292 calls)

     Parallel routines

     PWSCF        :      9.32s CPU      1.39s WALL


   This run was terminated on:  15:14:13   5Jan2024            

=------------------------------------------------------------------------------=
   JOB DONE.
=------------------------------------------------------------------------------=
