
     Program PWSCF v.6.6 starts on 19Dec2023 at 23:38:39 

     This program is part of the open-source Quantum ESPRESSO suite
     for quantum simulation of materials; please cite
         "P. Giannozzi et al., J. Phys.:Condens. Matter 21 395502 (2009);
         "P. Giannozzi et al., J. Phys.:Condens. Matter 29 465901 (2017);
          URL http://www.quantum-espresso.org", 
     in publications or presentations arising from this work. More details at
     http://www.quantum-espresso.org/quote

     Parallel version (MPI), running on     1 processors

     MPI processes distributed on     1 nodes
     Fft bands division:     nmany     =       1
     Reading input from lattice-in_7.09.in

     Current dimensions of program PWSCF are:
     Max number of different atomic species (ntypx) = 10
     Max number of k-points (npk) =  40000
     Max angular momentum in pseudopotentials (lmaxx) =  3

     Subspace diagonalization in iterative solution of the eigenvalue problem:
     a serial algorithm will be used


     G-vector sticks info
     --------------------
     sticks:   dense  smooth     PW     G-vecs:    dense   smooth      PW
     Sum         511     511    163                 7799     7799    1411



     bravais-lattice index     =            2
     lattice parameter (alat)  =       7.0900  a.u.
     unit-cell volume          =      89.1002 (a.u.)^3
     number of atoms/cell      =            2
     number of atomic types    =            1
     number of electrons       =         8.00
     number of Kohn-Sham states=            4
     kinetic-energy cutoff     =      75.0000  Ry
     charge density cutoff     =     300.0000  Ry
     convergence threshold     =      1.0E-08
     mixing beta               =       0.7000
     number of iterations used =            8  plain     mixing
     Exchange-correlation= PBE
                           (   1   4   3   4   0   0   0)

     celldm(1)=   7.090000  celldm(2)=   0.000000  celldm(3)=   0.000000
     celldm(4)=   0.000000  celldm(5)=   0.000000  celldm(6)=   0.000000

     crystal axes: (cart. coord. in units of alat)
               a(1) = (  -0.500000   0.000000   0.500000 )  
               a(2) = (   0.000000   0.500000   0.500000 )  
               a(3) = (  -0.500000   0.500000   0.000000 )  

     reciprocal axes: (cart. coord. in units 2 pi/alat)
               b(1) = ( -1.000000 -1.000000  1.000000 )  
               b(2) = (  1.000000  1.000000  1.000000 )  
               b(3) = ( -1.000000  1.000000 -1.000000 )  


     PseudoPot. # 1 for C  read from file:
     ./C.UPF
     MD5 check sum: ead9220225bd72a2f9a48cc2a638047d
     Pseudo is Norm-conserving + core correction, Zval =  4.0
     Generated using ONCVPSP code by D. R. Hamann
     Using radial grid of 1248 points,  4 beta functions with: 
                l(1) =   0
                l(2) =   0
                l(3) =   1
                l(4) =   1

     atomic species   valence    mass     pseudopotential
        C              4.00    12.01070     C ( 1.00)

     48 Sym. Ops., with inversion, found (24 have fractional translation)



   Cartesian axes

     site n.     atom                  positions (alat units)
         1           C   tau(   1) = (   0.0000000   0.0000000   0.0000000  )
         2           C   tau(   2) = (  -0.2500000   0.2500000   0.2500000  )

     number of k points=    10
                       cart. coord. in units 2pi/alat
        k(    1) = (  -0.1250000   0.1250000   0.1250000), wk =   0.0625000
        k(    2) = (  -0.3750000   0.3750000  -0.1250000), wk =   0.1875000
        k(    3) = (   0.3750000  -0.3750000   0.6250000), wk =   0.1875000
        k(    4) = (   0.1250000  -0.1250000   0.3750000), wk =   0.1875000
        k(    5) = (  -0.1250000   0.6250000   0.1250000), wk =   0.1875000
        k(    6) = (   0.6250000  -0.1250000   0.8750000), wk =   0.3750000
        k(    7) = (   0.3750000   0.1250000   0.6250000), wk =   0.3750000
        k(    8) = (  -0.1250000  -0.8750000   0.1250000), wk =   0.1875000
        k(    9) = (  -0.3750000   0.3750000   0.3750000), wk =   0.0625000
        k(   10) = (   0.3750000  -0.3750000   1.1250000), wk =   0.1875000

     Dense  grid:     7799 G-vectors     FFT dimensions: (  32,  32,  32)

     Estimated max dynamical RAM per process >       7.03 MB

     Initial potential from superposition of free atoms

     starting charge    7.99991, renormalised to    8.00000
     Starting wfcs are    8 randomized atomic wfcs

     total cpu time spent up to now is        0.2 secs

     Self-consistent Calculation

     iteration #  1     ecut=    75.00 Ry     beta= 0.70
     Davidson diagonalization with overlap
     ethr =  1.00E-02,  avg # of iterations =  2.0

     Threshold (ethr) on eigenvalues was too large:
     Diagonalizing with lowered threshold

     Davidson diagonalization with overlap
     ethr =  9.31E-04,  avg # of iterations =  1.2

     total cpu time spent up to now is        0.3 secs

     total energy              =     -24.04766111 Ry
     estimated scf accuracy    <       0.07893698 Ry

     iteration #  2     ecut=    75.00 Ry     beta= 0.70
     Davidson diagonalization with overlap
     ethr =  9.87E-04,  avg # of iterations =  1.0

     total cpu time spent up to now is        0.4 secs

     total energy              =     -24.05221670 Ry
     estimated scf accuracy    <       0.00236646 Ry

     iteration #  3     ecut=    75.00 Ry     beta= 0.70
     Davidson diagonalization with overlap
     ethr =  2.96E-05,  avg # of iterations =  2.6

     total cpu time spent up to now is        0.6 secs

     total energy              =     -24.05291364 Ry
     estimated scf accuracy    <       0.00007237 Ry

     iteration #  4     ecut=    75.00 Ry     beta= 0.70
     Davidson diagonalization with overlap
     ethr =  9.05E-07,  avg # of iterations =  5.0

     total cpu time spent up to now is        0.7 secs

     total energy              =     -24.05299046 Ry
     estimated scf accuracy    <       0.00000120 Ry

     iteration #  5     ecut=    75.00 Ry     beta= 0.70
     Davidson diagonalization with overlap
     ethr =  1.50E-08,  avg # of iterations =  5.2

     total cpu time spent up to now is        0.9 secs

     total energy              =     -24.05299222 Ry
     estimated scf accuracy    <       0.00000006 Ry

     iteration #  6     ecut=    75.00 Ry     beta= 0.70
     Davidson diagonalization with overlap
     ethr =  7.88E-10,  avg # of iterations =  4.4

     total cpu time spent up to now is        1.0 secs

     total energy              =     -24.05299226 Ry
     estimated scf accuracy    <       0.00000002 Ry

     iteration #  7     ecut=    75.00 Ry     beta= 0.70
     Davidson diagonalization with overlap
     ethr =  2.26E-10,  avg # of iterations =  2.2

     total cpu time spent up to now is        1.1 secs

     End of self-consistent calculation

          k =-0.1250 0.1250 0.1250 (   959 PWs)   bands (ev):

    -8.3890   8.6109  10.2216  10.2216

          k =-0.3750 0.3750-0.1250 (   968 PWs)   bands (ev):

    -6.3667   3.7663   6.9368   9.1747

          k = 0.3750-0.3750 0.6250 (   982 PWs)   bands (ev):

    -3.7935  -0.3995   7.0718   7.7262

          k = 0.1250-0.1250 0.3750 (   968 PWs)   bands (ev):

    -7.3647   6.1747   8.3191   8.9101

          k =-0.1250 0.6250 0.1250 (   987 PWs)   bands (ev):

    -5.3646   3.8196   6.1649   6.5965

          k = 0.6250-0.1250 0.8750 (   981 PWs)   bands (ev):

    -1.9551   0.4877   3.4701   5.3264

          k = 0.3750 0.1250 0.6250 (   980 PWs)   bands (ev):

    -4.4527   1.8541   5.2066   7.2424

          k =-0.1250-0.8750 0.1250 (   979 PWs)   bands (ev):

    -2.5220   0.8359   4.4555   5.6580

          k =-0.3750 0.3750 0.3750 (   984 PWs)   bands (ev):

    -5.4220   1.2010   8.5795   8.5795

          k = 0.3750-0.3750 1.1250 (   977 PWs)   bands (ev):

    -2.8953   0.3559   3.9309   7.1440

     highest occupied level (ev):    10.2216

!    total energy              =     -24.05299226 Ry
     estimated scf accuracy    <          1.9E-11 Ry

     The total energy is the sum of the following terms:
     one-electron contribution =       6.59520893 Ry
     hartree contribution      =       2.09507727 Ry
     xc contribution           =      -8.43050872 Ry
     ewald contribution        =     -24.31276973 Ry

     convergence has been achieved in   7 iterations

     Writing output data file ./tmp/diamond.save/

     init_run     :      0.50s CPU      0.10s WALL (       1 calls)
     electrons    :      7.86s CPU      0.89s WALL (       1 calls)

     Called by init_run:
     wfcinit      :      0.39s CPU      0.04s WALL (       1 calls)
     potinit      :      0.02s CPU      0.01s WALL (       1 calls)
     hinit0       :      0.08s CPU      0.04s WALL (       1 calls)

     Called by electrons:
     c_bands      :      6.73s CPU      0.71s WALL (       8 calls)
     sum_band     :      0.78s CPU      0.10s WALL (       8 calls)
     v_of_rho     :      0.31s CPU      0.08s WALL (       8 calls)
     mix_rho      :      0.01s CPU      0.01s WALL (       8 calls)

     Called by c_bands:
     init_us_2    :      0.11s CPU      0.02s WALL (     170 calls)
     cegterg      :      6.31s CPU      0.67s WALL (      80 calls)

     Called by *egterg:
     cdiaghg      :      0.05s CPU      0.01s WALL (     306 calls)
     h_psi        :      6.30s CPU      0.66s WALL (     326 calls)
     g_psi        :      0.01s CPU      0.00s WALL (     236 calls)

     Called by h_psi:
     h_psi:calbec :      0.82s CPU      0.09s WALL (     326 calls)
     vloc_psi     :      4.58s CPU      0.48s WALL (     326 calls)
     add_vuspsi   :      0.87s CPU      0.09s WALL (     326 calls)

     General routines
     calbec       :      0.81s CPU      0.09s WALL (     326 calls)
     fft          :      0.17s CPU      0.04s WALL (      81 calls)
     ffts         :      0.01s CPU      0.00s WALL (       8 calls)
     fftw         :      4.41s CPU      0.47s WALL (    2516 calls)

     Parallel routines

     PWSCF        :      8.59s CPU      1.06s WALL


   This run was terminated on:  23:38:40  19Dec2023            

=------------------------------------------------------------------------------=
   JOB DONE.
=------------------------------------------------------------------------------=
