
     Program PWSCF v.6.6 starts on  5Jan2024 at 15:15: 1 

     This program is part of the open-source Quantum ESPRESSO suite
     for quantum simulation of materials; please cite
         "P. Giannozzi et al., J. Phys.:Condens. Matter 21 395502 (2009);
         "P. Giannozzi et al., J. Phys.:Condens. Matter 29 465901 (2017);
          URL http://www.quantum-espresso.org", 
     in publications or presentations arising from this work. More details at
     http://www.quantum-espresso.org/quote

     Parallel version (MPI), running on     1 processors

     MPI processes distributed on     1 nodes
     Fft bands division:     nmany     =       1
     Reading input from lattice-in_7.07.in

     Current dimensions of program PWSCF are:
     Max number of different atomic species (ntypx) = 10
     Max number of k-points (npk) =  40000
     Max angular momentum in pseudopotentials (lmaxx) =  3

     Subspace diagonalization in iterative solution of the eigenvalue problem:
     a serial algorithm will be used


     G-vector sticks info
     --------------------
     sticks:   dense  smooth     PW     G-vecs:    dense   smooth      PW
     Sum         511     511    163                 7799     7799    1411



     bravais-lattice index     =            2
     lattice parameter (alat)  =       7.0700  a.u.
     unit-cell volume          =      88.3483 (a.u.)^3
     number of atoms/cell      =            2
     number of atomic types    =            1
     number of electrons       =         8.00
     number of Kohn-Sham states=            4
     kinetic-energy cutoff     =      75.0000  Ry
     charge density cutoff     =     300.0000  Ry
     convergence threshold     =      1.0E-08
     mixing beta               =       0.7000
     number of iterations used =            8  plain     mixing
     Exchange-correlation= PBE
                           (   1   4   3   4   0   0   0)

     celldm(1)=   7.070000  celldm(2)=   0.000000  celldm(3)=   0.000000
     celldm(4)=   0.000000  celldm(5)=   0.000000  celldm(6)=   0.000000

     crystal axes: (cart. coord. in units of alat)
               a(1) = (  -0.500000   0.000000   0.500000 )  
               a(2) = (   0.000000   0.500000   0.500000 )  
               a(3) = (  -0.500000   0.500000   0.000000 )  

     reciprocal axes: (cart. coord. in units 2 pi/alat)
               b(1) = ( -1.000000 -1.000000  1.000000 )  
               b(2) = (  1.000000  1.000000  1.000000 )  
               b(3) = ( -1.000000  1.000000 -1.000000 )  


     PseudoPot. # 1 for C  read from file:
     ./C.UPF
     MD5 check sum: ead9220225bd72a2f9a48cc2a638047d
     Pseudo is Norm-conserving + core correction, Zval =  4.0
     Generated using ONCVPSP code by D. R. Hamann
     Using radial grid of 1248 points,  4 beta functions with: 
                l(1) =   0
                l(2) =   0
                l(3) =   1
                l(4) =   1

     atomic species   valence    mass     pseudopotential
        C              4.00    12.01070     C ( 1.00)

     48 Sym. Ops., with inversion, found (24 have fractional translation)



   Cartesian axes

     site n.     atom                  positions (alat units)
         1           C   tau(   1) = (   0.0000000   0.0000000   0.0000000  )
         2           C   tau(   2) = (  -0.2500000   0.2500000   0.2500000  )

     number of k points=    10
                       cart. coord. in units 2pi/alat
        k(    1) = (  -0.1250000   0.1250000   0.1250000), wk =   0.0625000
        k(    2) = (  -0.3750000   0.3750000  -0.1250000), wk =   0.1875000
        k(    3) = (   0.3750000  -0.3750000   0.6250000), wk =   0.1875000
        k(    4) = (   0.1250000  -0.1250000   0.3750000), wk =   0.1875000
        k(    5) = (  -0.1250000   0.6250000   0.1250000), wk =   0.1875000
        k(    6) = (   0.6250000  -0.1250000   0.8750000), wk =   0.3750000
        k(    7) = (   0.3750000   0.1250000   0.6250000), wk =   0.3750000
        k(    8) = (  -0.1250000  -0.8750000   0.1250000), wk =   0.1875000
        k(    9) = (  -0.3750000   0.3750000   0.3750000), wk =   0.0625000
        k(   10) = (   0.3750000  -0.3750000   1.1250000), wk =   0.1875000

     Dense  grid:     7799 G-vectors     FFT dimensions: (  32,  32,  32)

     Estimated max dynamical RAM per process >       7.02 MB

     Initial potential from superposition of free atoms

     starting charge    7.99991, renormalised to    8.00000
     Starting wfcs are    8 randomized atomic wfcs

     total cpu time spent up to now is        0.2 secs

     Self-consistent Calculation

     iteration #  1     ecut=    75.00 Ry     beta= 0.70
     Davidson diagonalization with overlap
     ethr =  1.00E-02,  avg # of iterations =  2.0

     Threshold (ethr) on eigenvalues was too large:
     Diagonalizing with lowered threshold

     Davidson diagonalization with overlap
     ethr =  9.49E-04,  avg # of iterations =  1.3

     total cpu time spent up to now is        0.6 secs

     total energy              =     -24.05003435 Ry
     estimated scf accuracy    <       0.08056621 Ry

     iteration #  2     ecut=    75.00 Ry     beta= 0.70
     Davidson diagonalization with overlap
     ethr =  1.01E-03,  avg # of iterations =  1.0

     total cpu time spent up to now is        0.9 secs

     total energy              =     -24.05464088 Ry
     estimated scf accuracy    <       0.00240344 Ry

     iteration #  3     ecut=    75.00 Ry     beta= 0.70
     Davidson diagonalization with overlap
     ethr =  3.00E-05,  avg # of iterations =  2.6

     total cpu time spent up to now is        1.1 secs

     total energy              =     -24.05533993 Ry
     estimated scf accuracy    <       0.00007151 Ry

     iteration #  4     ecut=    75.00 Ry     beta= 0.70
     Davidson diagonalization with overlap
     ethr =  8.94E-07,  avg # of iterations =  4.5

     total cpu time spent up to now is        1.3 secs

     total energy              =     -24.05540215 Ry
     estimated scf accuracy    <       0.00000118 Ry

     iteration #  5     ecut=    75.00 Ry     beta= 0.70
     Davidson diagonalization with overlap
     ethr =  1.47E-08,  avg # of iterations =  5.8

     total cpu time spent up to now is        1.6 secs

     total energy              =     -24.05540482 Ry
     estimated scf accuracy    <       0.00000007 Ry

     iteration #  6     ecut=    75.00 Ry     beta= 0.70
     Davidson diagonalization with overlap
     ethr =  8.37E-10,  avg # of iterations =  3.4

     total cpu time spent up to now is        1.8 secs

     total energy              =     -24.05540485 Ry
     estimated scf accuracy    <       0.00000002 Ry

     iteration #  7     ecut=    75.00 Ry     beta= 0.70
     Davidson diagonalization with overlap
     ethr =  2.52E-10,  avg # of iterations =  2.6

     total cpu time spent up to now is        2.1 secs

     End of self-consistent calculation

          k =-0.1250 0.1250 0.1250 (   953 PWs)   bands (ev):

    -8.3531   8.7346  10.3523  10.3523

          k =-0.3750 0.3750-0.1250 (   960 PWs)   bands (ev):

    -6.3176   3.8631   7.0446   9.2976

          k = 0.3750-0.3750 0.6250 (   974 PWs)   bands (ev):

    -3.7206  -0.3364   7.1839   7.8367

          k = 0.1250-0.1250 0.3750 (   960 PWs)   bands (ev):

    -7.3225   6.2860   8.4330   9.0368

          k =-0.1250 0.6250 0.1250 (   978 PWs)   bands (ev):

    -5.3093   3.9274   6.2671   6.6965

          k = 0.6250-0.1250 0.8750 (   974 PWs)   bands (ev):

    -1.8716   0.5783   3.5462   5.4144

          k = 0.3750 0.1250 0.6250 (   971 PWs)   bands (ev):

    -4.3898   1.9421   5.3040   7.3490

          k =-0.1250-0.8750 0.1250 (   972 PWs)   bands (ev):

    -2.4474   0.9334   4.5369   5.7510

          k =-0.3750 0.3750 0.3750 (   966 PWs)   bands (ev):

    -5.3653   1.2788   8.6974   8.6974

          k = 0.3750-0.3750 1.1250 (   972 PWs)   bands (ev):

    -2.8170   0.4314   4.0179   7.2492

     highest occupied level (ev):    10.3523

!    total energy              =     -24.05540485 Ry
     estimated scf accuracy    <          1.9E-11 Ry

     The total energy is the sum of the following terms:
     one-electron contribution =       6.68440413 Ry
     hartree contribution      =       2.08558058 Ry
     xc contribution           =      -8.44384254 Ry
     ewald contribution        =     -24.38154702 Ry

     convergence has been achieved in   7 iterations

     Writing output data file ./tmp/diamond.save/

     init_run     :      0.66s CPU      0.15s WALL (       1 calls)
     electrons    :     13.09s CPU      1.88s WALL (       1 calls)

     Called by init_run:
     wfcinit      :      0.52s CPU      0.07s WALL (       1 calls)
     potinit      :      0.05s CPU      0.01s WALL (       1 calls)
     hinit0       :      0.09s CPU      0.05s WALL (       1 calls)

     Called by electrons:
     c_bands      :     12.41s CPU      1.68s WALL (       8 calls)
     sum_band     :      0.44s CPU      0.10s WALL (       8 calls)
     v_of_rho     :      0.27s CPU      0.10s WALL (       8 calls)
     mix_rho      :      0.01s CPU      0.01s WALL (       8 calls)

     Called by c_bands:
     init_us_2    :      0.15s CPU      0.02s WALL (     170 calls)
     cegterg      :     12.17s CPU      1.64s WALL (      80 calls)

     Called by *egterg:
     cdiaghg      :      0.10s CPU      0.01s WALL (     302 calls)
     h_psi        :     12.17s CPU      1.66s WALL (     322 calls)
     g_psi        :      0.02s CPU      0.00s WALL (     232 calls)

     Called by h_psi:
     h_psi:calbec :      4.74s CPU      0.63s WALL (     322 calls)
     vloc_psi     :      3.29s CPU      0.49s WALL (     322 calls)
     add_vuspsi   :      4.11s CPU      0.54s WALL (     322 calls)

     General routines
     calbec       :      4.73s CPU      0.63s WALL (     322 calls)
     fft          :      0.09s CPU      0.04s WALL (      81 calls)
     ffts         :      0.01s CPU      0.00s WALL (       8 calls)
     fftw         :      3.09s CPU      0.48s WALL (    2502 calls)

     Parallel routines

     PWSCF        :     13.95s CPU      2.10s WALL


   This run was terminated on:  15:15: 3   5Jan2024            

=------------------------------------------------------------------------------=
   JOB DONE.
=------------------------------------------------------------------------------=
