
     Program PWSCF v.6.6 starts on  5Jan2024 at 11:11:14 

     This program is part of the open-source Quantum ESPRESSO suite
     for quantum simulation of materials; please cite
         "P. Giannozzi et al., J. Phys.:Condens. Matter 21 395502 (2009);
         "P. Giannozzi et al., J. Phys.:Condens. Matter 29 465901 (2017);
          URL http://www.quantum-espresso.org", 
     in publications or presentations arising from this work. More details at
     http://www.quantum-espresso.org/quote

     Parallel version (MPI), running on     1 processors

     MPI processes distributed on     1 nodes
     Fft bands division:     nmany     =       1
     Reading input from lattice-in_6.93.in

     Current dimensions of program PWSCF are:
     Max number of different atomic species (ntypx) = 10
     Max number of k-points (npk) =  40000
     Max angular momentum in pseudopotentials (lmaxx) =  3

     Subspace diagonalization in iterative solution of the eigenvalue problem:
     a serial algorithm will be used


     G-vector sticks info
     --------------------
     sticks:   dense  smooth     PW     G-vecs:    dense   smooth      PW
     Sum         499     499    163                 7391     7391    1363



     bravais-lattice index     =            2
     lattice parameter (alat)  =       6.9300  a.u.
     unit-cell volume          =      83.2031 (a.u.)^3
     number of atoms/cell      =            2
     number of atomic types    =            1
     number of electrons       =         8.00
     number of Kohn-Sham states=            4
     kinetic-energy cutoff     =      75.0000  Ry
     charge density cutoff     =     300.0000  Ry
     convergence threshold     =      1.0E-08
     mixing beta               =       0.7000
     number of iterations used =            8  plain     mixing
     Exchange-correlation= PBE
                           (   1   4   3   4   0   0   0)

     celldm(1)=   6.930000  celldm(2)=   0.000000  celldm(3)=   0.000000
     celldm(4)=   0.000000  celldm(5)=   0.000000  celldm(6)=   0.000000

     crystal axes: (cart. coord. in units of alat)
               a(1) = (  -0.500000   0.000000   0.500000 )  
               a(2) = (   0.000000   0.500000   0.500000 )  
               a(3) = (  -0.500000   0.500000   0.000000 )  

     reciprocal axes: (cart. coord. in units 2 pi/alat)
               b(1) = ( -1.000000 -1.000000  1.000000 )  
               b(2) = (  1.000000  1.000000  1.000000 )  
               b(3) = ( -1.000000  1.000000 -1.000000 )  


     PseudoPot. # 1 for C  read from file:
     ./C.UPF
     MD5 check sum: ead9220225bd72a2f9a48cc2a638047d
     Pseudo is Norm-conserving + core correction, Zval =  4.0
     Generated using ONCVPSP code by D. R. Hamann
     Using radial grid of 1248 points,  4 beta functions with: 
                l(1) =   0
                l(2) =   0
                l(3) =   1
                l(4) =   1

     atomic species   valence    mass     pseudopotential
        C              4.00    12.01070     C ( 1.00)

     48 Sym. Ops., with inversion, found (24 have fractional translation)



   Cartesian axes

     site n.     atom                  positions (alat units)
         1           C   tau(   1) = (   0.0000000   0.0000000   0.0000000  )
         2           C   tau(   2) = (  -0.2500000   0.2500000   0.2500000  )

     number of k points=    10
                       cart. coord. in units 2pi/alat
        k(    1) = (  -0.1250000   0.1250000   0.1250000), wk =   0.0625000
        k(    2) = (  -0.3750000   0.3750000  -0.1250000), wk =   0.1875000
        k(    3) = (   0.3750000  -0.3750000   0.6250000), wk =   0.1875000
        k(    4) = (   0.1250000  -0.1250000   0.3750000), wk =   0.1875000
        k(    5) = (  -0.1250000   0.6250000   0.1250000), wk =   0.1875000
        k(    6) = (   0.6250000  -0.1250000   0.8750000), wk =   0.3750000
        k(    7) = (   0.3750000   0.1250000   0.6250000), wk =   0.3750000
        k(    8) = (  -0.1250000  -0.8750000   0.1250000), wk =   0.1875000
        k(    9) = (  -0.3750000   0.3750000   0.3750000), wk =   0.0625000
        k(   10) = (   0.3750000  -0.3750000   1.1250000), wk =   0.1875000

     Dense  grid:     7391 G-vectors     FFT dimensions: (  32,  32,  32)

     Estimated max dynamical RAM per process >       6.78 MB

     Initial potential from superposition of free atoms

     starting charge    7.99991, renormalised to    8.00000
     Starting wfcs are    8 randomized atomic wfcs

     total cpu time spent up to now is        0.2 secs

     Self-consistent Calculation

     iteration #  1     ecut=    75.00 Ry     beta= 0.70
     Davidson diagonalization with overlap
     ethr =  1.00E-02,  avg # of iterations =  2.0

     total cpu time spent up to now is        0.3 secs

     total energy              =     -24.06202487 Ry
     estimated scf accuracy    <       0.08852307 Ry

     iteration #  2     ecut=    75.00 Ry     beta= 0.70
     Davidson diagonalization with overlap
     ethr =  1.11E-03,  avg # of iterations =  1.4

     total cpu time spent up to now is        0.4 secs

     total energy              =     -24.06738986 Ry
     estimated scf accuracy    <       0.00332927 Ry

     iteration #  3     ecut=    75.00 Ry     beta= 0.70
     Davidson diagonalization with overlap
     ethr =  4.16E-05,  avg # of iterations =  2.8

     total cpu time spent up to now is        0.7 secs

     total energy              =     -24.06867064 Ry
     estimated scf accuracy    <       0.00007869 Ry

     iteration #  4     ecut=    75.00 Ry     beta= 0.70
     Davidson diagonalization with overlap
     ethr =  9.84E-07,  avg # of iterations =  5.2

     total cpu time spent up to now is        1.2 secs

     total energy              =     -24.06878330 Ry
     estimated scf accuracy    <       0.00001122 Ry

     iteration #  5     ecut=    75.00 Ry     beta= 0.70
     Davidson diagonalization with overlap
     ethr =  1.40E-07,  avg # of iterations =  2.7

     total cpu time spent up to now is        1.3 secs

     total energy              =     -24.06878644 Ry
     estimated scf accuracy    <       0.00000032 Ry

     iteration #  6     ecut=    75.00 Ry     beta= 0.70
     Davidson diagonalization with overlap
     ethr =  4.04E-09,  avg # of iterations =  4.0

     total cpu time spent up to now is        1.5 secs

     total energy              =     -24.06878668 Ry
     estimated scf accuracy    <       0.00000001 Ry

     iteration #  7     ecut=    75.00 Ry     beta= 0.70
     Davidson diagonalization with overlap
     ethr =  1.35E-10,  avg # of iterations =  4.1

     total cpu time spent up to now is        1.6 secs

     End of self-consistent calculation

          k =-0.1250 0.1250 0.1250 (   914 PWs)   bands (ev):

    -8.0903   9.6313  11.3044  11.3044

          k =-0.3750 0.3750-0.1250 (   913 PWs)   bands (ev):

    -5.9604   4.5641   7.8300  10.1933

          k = 0.3750-0.3750 0.6250 (   911 PWs)   bands (ev):

    -3.1901   0.1220   7.9991   8.6406

          k = 0.1250-0.1250 0.3750 (   914 PWs)   bands (ev):

    -7.0135   7.0923   9.2608   9.9611

          k =-0.1250 0.6250 0.1250 (   908 PWs)   bands (ev):

    -4.9073   4.7063   7.0159   7.4244

          k = 0.6250-0.1250 0.8750 (   914 PWs)   bands (ev):

    -1.2647   1.2326   4.1036   6.0560

          k = 0.3750 0.1250 0.6250 (   906 PWs)   bands (ev):

    -3.9333   2.5781   6.0162   8.1252

          k =-0.1250-0.8750 0.1250 (   915 PWs)   bands (ev):

    -1.9060   1.6415   5.1302   6.4267

          k =-0.3750 0.3750 0.3750 (   911 PWs)   bands (ev):

    -4.9536   1.8441   9.5565   9.5565

          k = 0.3750-0.3750 1.1250 (   912 PWs)   bands (ev):

    -2.2472   0.9752   4.6557   8.0158

     highest occupied level (ev):    11.3044

!    total energy              =     -24.06878669 Ry
     estimated scf accuracy    <          2.5E-09 Ry

     The total energy is the sum of the following terms:
     one-electron contribution =       7.32593598 Ry
     hartree contribution      =       2.01965415 Ry
     xc contribution           =      -8.54027329 Ry
     ewald contribution        =     -24.87410352 Ry

     convergence has been achieved in   7 iterations

     Writing output data file ./tmp/diamond.save/

     init_run     :      0.56s CPU      0.11s WALL (       1 calls)
     electrons    :      9.74s CPU      1.42s WALL (       1 calls)

     Called by init_run:
     wfcinit      :      0.46s CPU      0.06s WALL (       1 calls)
     potinit      :      0.03s CPU      0.02s WALL (       1 calls)
     hinit0       :      0.06s CPU      0.03s WALL (       1 calls)

     Called by electrons:
     c_bands      :      9.09s CPU      1.25s WALL (       7 calls)
     sum_band     :      0.44s CPU      0.09s WALL (       7 calls)
     v_of_rho     :      0.23s CPU      0.08s WALL (       8 calls)
     mix_rho      :      0.01s CPU      0.00s WALL (       7 calls)

     Called by c_bands:
     init_us_2    :      0.12s CPU      0.01s WALL (     150 calls)
     cegterg      :      8.84s CPU      1.23s WALL (      70 calls)

     Called by *egterg:
     cdiaghg      :      0.07s CPU      0.01s WALL (     292 calls)
     h_psi        :      8.91s CPU      1.25s WALL (     302 calls)
     g_psi        :      0.01s CPU      0.00s WALL (     222 calls)

     Called by h_psi:
     h_psi:calbec :      3.49s CPU      0.49s WALL (     302 calls)
     vloc_psi     :      2.91s CPU      0.40s WALL (     302 calls)
     add_vuspsi   :      2.49s CPU      0.36s WALL (     302 calls)

     General routines
     calbec       :      3.48s CPU      0.49s WALL (     302 calls)
     fft          :      0.10s CPU      0.04s WALL (      80 calls)
     ffts         :      0.01s CPU      0.00s WALL (       7 calls)
     fftw         :      2.74s CPU      0.40s WALL (    2344 calls)

     Parallel routines

     PWSCF        :     10.44s CPU      1.62s WALL


   This run was terminated on:  11:11:15   5Jan2024            

=------------------------------------------------------------------------------=
   JOB DONE.
=------------------------------------------------------------------------------=
