
     Program PWSCF v.6.6 starts on 19Dec2023 at 23:37:59 

     This program is part of the open-source Quantum ESPRESSO suite
     for quantum simulation of materials; please cite
         "P. Giannozzi et al., J. Phys.:Condens. Matter 21 395502 (2009);
         "P. Giannozzi et al., J. Phys.:Condens. Matter 29 465901 (2017);
          URL http://www.quantum-espresso.org", 
     in publications or presentations arising from this work. More details at
     http://www.quantum-espresso.org/quote

     Parallel version (MPI), running on     1 processors

     MPI processes distributed on     1 nodes
     Fft bands division:     nmany     =       1
     Reading input from lattice-in_6.65.in

     Current dimensions of program PWSCF are:
     Max number of different atomic species (ntypx) = 10
     Max number of k-points (npk) =  40000
     Max angular momentum in pseudopotentials (lmaxx) =  3

     Subspace diagonalization in iterative solution of the eigenvalue problem:
     a serial algorithm will be used


     G-vector sticks info
     --------------------
     sticks:   dense  smooth     PW     G-vecs:    dense   smooth      PW
     Sum         451     451    151                 6423     6423    1243



     bravais-lattice index     =            2
     lattice parameter (alat)  =       6.6500  a.u.
     unit-cell volume          =      73.5199 (a.u.)^3
     number of atoms/cell      =            2
     number of atomic types    =            1
     number of electrons       =         8.00
     number of Kohn-Sham states=            4
     kinetic-energy cutoff     =      75.0000  Ry
     charge density cutoff     =     300.0000  Ry
     convergence threshold     =      1.0E-08
     mixing beta               =       0.7000
     number of iterations used =            8  plain     mixing
     Exchange-correlation= PBE
                           (   1   4   3   4   0   0   0)

     celldm(1)=   6.650000  celldm(2)=   0.000000  celldm(3)=   0.000000
     celldm(4)=   0.000000  celldm(5)=   0.000000  celldm(6)=   0.000000

     crystal axes: (cart. coord. in units of alat)
               a(1) = (  -0.500000   0.000000   0.500000 )  
               a(2) = (   0.000000   0.500000   0.500000 )  
               a(3) = (  -0.500000   0.500000   0.000000 )  

     reciprocal axes: (cart. coord. in units 2 pi/alat)
               b(1) = ( -1.000000 -1.000000  1.000000 )  
               b(2) = (  1.000000  1.000000  1.000000 )  
               b(3) = ( -1.000000  1.000000 -1.000000 )  


     PseudoPot. # 1 for C  read from file:
     ./C.UPF
     MD5 check sum: ead9220225bd72a2f9a48cc2a638047d
     Pseudo is Norm-conserving + core correction, Zval =  4.0
     Generated using ONCVPSP code by D. R. Hamann
     Using radial grid of 1248 points,  4 beta functions with: 
                l(1) =   0
                l(2) =   0
                l(3) =   1
                l(4) =   1

     atomic species   valence    mass     pseudopotential
        C              4.00    12.01070     C ( 1.00)

     48 Sym. Ops., with inversion, found (24 have fractional translation)



   Cartesian axes

     site n.     atom                  positions (alat units)
         1           C   tau(   1) = (   0.0000000   0.0000000   0.0000000  )
         2           C   tau(   2) = (  -0.2500000   0.2500000   0.2500000  )

     number of k points=    10
                       cart. coord. in units 2pi/alat
        k(    1) = (  -0.1250000   0.1250000   0.1250000), wk =   0.0625000
        k(    2) = (  -0.3750000   0.3750000  -0.1250000), wk =   0.1875000
        k(    3) = (   0.3750000  -0.3750000   0.6250000), wk =   0.1875000
        k(    4) = (   0.1250000  -0.1250000   0.3750000), wk =   0.1875000
        k(    5) = (  -0.1250000   0.6250000   0.1250000), wk =   0.1875000
        k(    6) = (   0.6250000  -0.1250000   0.8750000), wk =   0.3750000
        k(    7) = (   0.3750000   0.1250000   0.6250000), wk =   0.3750000
        k(    8) = (  -0.1250000  -0.8750000   0.1250000), wk =   0.1875000
        k(    9) = (  -0.3750000   0.3750000   0.3750000), wk =   0.0625000
        k(   10) = (   0.3750000  -0.3750000   1.1250000), wk =   0.1875000

     Dense  grid:     6423 G-vectors     FFT dimensions: (  32,  32,  32)

     Estimated max dynamical RAM per process >       6.26 MB

     Initial potential from superposition of free atoms

     starting charge    7.99991, renormalised to    8.00000
     Starting wfcs are    8 randomized atomic wfcs

     total cpu time spent up to now is        0.2 secs

     Self-consistent Calculation

     iteration #  1     ecut=    75.00 Ry     beta= 0.70
     Davidson diagonalization with overlap
     ethr =  1.00E-02,  avg # of iterations =  2.0

     total cpu time spent up to now is        0.2 secs

     total energy              =     -24.06451280 Ry
     estimated scf accuracy    <       0.11860861 Ry

     iteration #  2     ecut=    75.00 Ry     beta= 0.70
     Davidson diagonalization with overlap
     ethr =  1.48E-03,  avg # of iterations =  1.3

     total cpu time spent up to now is        0.3 secs

     total energy              =     -24.07143923 Ry
     estimated scf accuracy    <       0.00392852 Ry

     iteration #  3     ecut=    75.00 Ry     beta= 0.70
     Davidson diagonalization with overlap
     ethr =  4.91E-05,  avg # of iterations =  2.8

     total cpu time spent up to now is        0.4 secs

     total energy              =     -24.07298612 Ry
     estimated scf accuracy    <       0.00008976 Ry

     iteration #  4     ecut=    75.00 Ry     beta= 0.70
     Davidson diagonalization with overlap
     ethr =  1.12E-06,  avg # of iterations =  5.1

     total cpu time spent up to now is        0.5 secs

     total energy              =     -24.07308567 Ry
     estimated scf accuracy    <       0.00001432 Ry

     iteration #  5     ecut=    75.00 Ry     beta= 0.70
     Davidson diagonalization with overlap
     ethr =  1.79E-07,  avg # of iterations =  2.6

     total cpu time spent up to now is        0.6 secs

     total energy              =     -24.07308942 Ry
     estimated scf accuracy    <       0.00000081 Ry

     iteration #  6     ecut=    75.00 Ry     beta= 0.70
     Davidson diagonalization with overlap
     ethr =  1.01E-08,  avg # of iterations =  3.3

     total cpu time spent up to now is        0.7 secs

     total energy              =     -24.07308974 Ry
     estimated scf accuracy    <       0.00000002 Ry

     iteration #  7     ecut=    75.00 Ry     beta= 0.70
     Davidson diagonalization with overlap
     ethr =  2.11E-10,  avg # of iterations =  4.7

     total cpu time spent up to now is        0.8 secs

     End of self-consistent calculation

          k =-0.1250 0.1250 0.1250 (   815 PWs)   bands (ev):

    -7.4963  11.6092  13.4188  13.4188

          k =-0.3750 0.3750-0.1250 (   808 PWs)   bands (ev):

    -5.1658   6.1048   9.5769  12.1841

          k = 0.3750-0.3750 0.6250 (   808 PWs)   bands (ev):

    -2.0158   1.1334   9.8113  10.4252

          k = 0.1250-0.1250 0.3750 (   814 PWs)   bands (ev):

    -6.3214   8.8587  11.0964  12.0195

          k =-0.1250 0.6250 0.1250 (   813 PWs)   bands (ev):

    -4.0166   6.3976   8.7003   9.0389

          k = 0.6250-0.1250 0.8750 (   801 PWs)   bands (ev):

     0.0769   2.6533   5.3677   7.4792

          k = 0.3750 0.1250 0.6250 (   804 PWs)   bands (ev):

    -2.9265   3.9688   7.6107   9.8511

          k =-0.1250-0.8750 0.1250 (   794 PWs)   bands (ev):

    -0.7143   3.2022   6.4482   7.9267

          k =-0.3750 0.3750 0.3750 (   811 PWs)   bands (ev):

    -4.0438   3.0991  11.4650  11.4650

          k = 0.3750-0.3750 1.1250 (   800 PWs)   bands (ev):

    -0.9869   2.1530   6.0956   9.7169

     highest occupied level (ev):    13.4188

!    total energy              =     -24.07308976 Ry
     estimated scf accuracy    <          1.5E-09 Ry

     The total energy is the sum of the following terms:
     one-electron contribution =       8.70802052 Ry
     hartree contribution      =       1.89073469 Ry
     xc contribution           =      -8.75041077 Ry
     ewald contribution        =     -25.92143420 Ry

     convergence has been achieved in   7 iterations

     Writing output data file ./tmp/diamond.save/

     init_run     :      0.46s CPU      0.10s WALL (       1 calls)
     electrons    :      5.55s CPU      0.63s WALL (       1 calls)

     Called by init_run:
     wfcinit      :      0.36s CPU      0.05s WALL (       1 calls)
     potinit      :      0.02s CPU      0.01s WALL (       1 calls)
     hinit0       :      0.07s CPU      0.04s WALL (       1 calls)

     Called by electrons:
     c_bands      :      4.60s CPU      0.47s WALL (       7 calls)
     sum_band     :      0.79s CPU      0.09s WALL (       7 calls)
     v_of_rho     :      0.15s CPU      0.08s WALL (       8 calls)
     mix_rho      :      0.03s CPU      0.01s WALL (       7 calls)

     Called by c_bands:
     init_us_2    :      0.13s CPU      0.01s WALL (     150 calls)
     cegterg      :      4.33s CPU      0.45s WALL (      70 calls)

     Called by *egterg:
     cdiaghg      :      0.05s CPU      0.01s WALL (     288 calls)
     h_psi        :      4.40s CPU      0.46s WALL (     298 calls)
     g_psi        :      0.01s CPU      0.00s WALL (     218 calls)

     Called by h_psi:
     h_psi:calbec :      0.24s CPU      0.03s WALL (     298 calls)
     vloc_psi     :      3.87s CPU      0.40s WALL (     298 calls)
     add_vuspsi   :      0.27s CPU      0.03s WALL (     298 calls)

     General routines
     calbec       :      0.24s CPU      0.03s WALL (     298 calls)
     fft          :      0.08s CPU      0.04s WALL (      80 calls)
     ffts         :      0.01s CPU      0.00s WALL (       7 calls)
     fftw         :      3.91s CPU      0.39s WALL (    2328 calls)

     Parallel routines

     PWSCF        :      6.15s CPU      0.82s WALL


   This run was terminated on:  23:38: 0  19Dec2023            

=------------------------------------------------------------------------------=
   JOB DONE.
=------------------------------------------------------------------------------=
