
     Program PWSCF v.6.6 starts on 19Dec2023 at 23:38:22 

     This program is part of the open-source Quantum ESPRESSO suite
     for quantum simulation of materials; please cite
         "P. Giannozzi et al., J. Phys.:Condens. Matter 21 395502 (2009);
         "P. Giannozzi et al., J. Phys.:Condens. Matter 29 465901 (2017);
          URL http://www.quantum-espresso.org", 
     in publications or presentations arising from this work. More details at
     http://www.quantum-espresso.org/quote

     Parallel version (MPI), running on     1 processors

     MPI processes distributed on     1 nodes
     Fft bands division:     nmany     =       1
     Reading input from lattice-in_6.91.in

     Current dimensions of program PWSCF are:
     Max number of different atomic species (ntypx) = 10
     Max number of k-points (npk) =  40000
     Max angular momentum in pseudopotentials (lmaxx) =  3

     Subspace diagonalization in iterative solution of the eigenvalue problem:
     a serial algorithm will be used


     G-vector sticks info
     --------------------
     sticks:   dense  smooth     PW     G-vecs:    dense   smooth      PW
     Sum         499     499    163                 7239     7239    1291



     bravais-lattice index     =            2
     lattice parameter (alat)  =       6.9100  a.u.
     unit-cell volume          =      82.4848 (a.u.)^3
     number of atoms/cell      =            2
     number of atomic types    =            1
     number of electrons       =         8.00
     number of Kohn-Sham states=            4
     kinetic-energy cutoff     =      75.0000  Ry
     charge density cutoff     =     300.0000  Ry
     convergence threshold     =      1.0E-08
     mixing beta               =       0.7000
     number of iterations used =            8  plain     mixing
     Exchange-correlation= PBE
                           (   1   4   3   4   0   0   0)

     celldm(1)=   6.910000  celldm(2)=   0.000000  celldm(3)=   0.000000
     celldm(4)=   0.000000  celldm(5)=   0.000000  celldm(6)=   0.000000

     crystal axes: (cart. coord. in units of alat)
               a(1) = (  -0.500000   0.000000   0.500000 )  
               a(2) = (   0.000000   0.500000   0.500000 )  
               a(3) = (  -0.500000   0.500000   0.000000 )  

     reciprocal axes: (cart. coord. in units 2 pi/alat)
               b(1) = ( -1.000000 -1.000000  1.000000 )  
               b(2) = (  1.000000  1.000000  1.000000 )  
               b(3) = ( -1.000000  1.000000 -1.000000 )  


     PseudoPot. # 1 for C  read from file:
     ./C.UPF
     MD5 check sum: ead9220225bd72a2f9a48cc2a638047d
     Pseudo is Norm-conserving + core correction, Zval =  4.0
     Generated using ONCVPSP code by D. R. Hamann
     Using radial grid of 1248 points,  4 beta functions with: 
                l(1) =   0
                l(2) =   0
                l(3) =   1
                l(4) =   1

     atomic species   valence    mass     pseudopotential
        C              4.00    12.01070     C ( 1.00)

     48 Sym. Ops., with inversion, found (24 have fractional translation)



   Cartesian axes

     site n.     atom                  positions (alat units)
         1           C   tau(   1) = (   0.0000000   0.0000000   0.0000000  )
         2           C   tau(   2) = (  -0.2500000   0.2500000   0.2500000  )

     number of k points=    10
                       cart. coord. in units 2pi/alat
        k(    1) = (  -0.1250000   0.1250000   0.1250000), wk =   0.0625000
        k(    2) = (  -0.3750000   0.3750000  -0.1250000), wk =   0.1875000
        k(    3) = (   0.3750000  -0.3750000   0.6250000), wk =   0.1875000
        k(    4) = (   0.1250000  -0.1250000   0.3750000), wk =   0.1875000
        k(    5) = (  -0.1250000   0.6250000   0.1250000), wk =   0.1875000
        k(    6) = (   0.6250000  -0.1250000   0.8750000), wk =   0.3750000
        k(    7) = (   0.3750000   0.1250000   0.6250000), wk =   0.3750000
        k(    8) = (  -0.1250000  -0.8750000   0.1250000), wk =   0.1875000
        k(    9) = (  -0.3750000   0.3750000   0.3750000), wk =   0.0625000
        k(   10) = (   0.3750000  -0.3750000   1.1250000), wk =   0.1875000

     Dense  grid:     7239 G-vectors     FFT dimensions: (  32,  32,  32)

     Estimated max dynamical RAM per process >       6.71 MB

     Initial potential from superposition of free atoms

     starting charge    7.99991, renormalised to    8.00000
     Starting wfcs are    8 randomized atomic wfcs

     total cpu time spent up to now is        0.2 secs

     Self-consistent Calculation

     iteration #  1     ecut=    75.00 Ry     beta= 0.70
     Davidson diagonalization with overlap
     ethr =  1.00E-02,  avg # of iterations =  2.0

     total cpu time spent up to now is        0.3 secs

     total energy              =     -24.06327967 Ry
     estimated scf accuracy    <       0.09044579 Ry

     iteration #  2     ecut=    75.00 Ry     beta= 0.70
     Davidson diagonalization with overlap
     ethr =  1.13E-03,  avg # of iterations =  1.3

     total cpu time spent up to now is        0.3 secs

     total energy              =     -24.06868908 Ry
     estimated scf accuracy    <       0.00338565 Ry

     iteration #  3     ecut=    75.00 Ry     beta= 0.70
     Davidson diagonalization with overlap
     ethr =  4.23E-05,  avg # of iterations =  2.9

     total cpu time spent up to now is        0.4 secs

     total energy              =     -24.07004995 Ry
     estimated scf accuracy    <       0.00007983 Ry

     iteration #  4     ecut=    75.00 Ry     beta= 0.70
     Davidson diagonalization with overlap
     ethr =  9.98E-07,  avg # of iterations =  5.2

     total cpu time spent up to now is        0.5 secs

     total energy              =     -24.07015747 Ry
     estimated scf accuracy    <       0.00001168 Ry

     iteration #  5     ecut=    75.00 Ry     beta= 0.70
     Davidson diagonalization with overlap
     ethr =  1.46E-07,  avg # of iterations =  2.7

     total cpu time spent up to now is        0.6 secs

     total energy              =     -24.07016073 Ry
     estimated scf accuracy    <       0.00000117 Ry

     iteration #  6     ecut=    75.00 Ry     beta= 0.70
     Davidson diagonalization with overlap
     ethr =  1.46E-08,  avg # of iterations =  2.5

     total cpu time spent up to now is        0.7 secs

     total energy              =     -24.07016097 Ry
     estimated scf accuracy    <       0.00000001 Ry

     iteration #  7     ecut=    75.00 Ry     beta= 0.70
     Davidson diagonalization with overlap
     ethr =  1.81E-10,  avg # of iterations =  6.0

     total cpu time spent up to now is        0.8 secs

     End of self-consistent calculation

          k =-0.1250 0.1250 0.1250 (   914 PWs)   bands (ev):

    -8.0511   9.7638  11.4455  11.4455

          k =-0.3750 0.3750-0.1250 (   903 PWs)   bands (ev):

    -5.9074   4.6676   7.9467  10.3262

          k = 0.3750-0.3750 0.6250 (   903 PWs)   bands (ev):

    -3.1115   0.1897   8.1201   8.7597

          k = 0.1250-0.1250 0.3750 (   907 PWs)   bands (ev):

    -6.9676   7.2112   9.3835  10.0984

          k =-0.1250 0.6250 0.1250 (   902 PWs)   bands (ev):

    -4.8478   4.8209   7.1274   7.5325

          k = 0.6250-0.1250 0.8750 (   907 PWs)   bands (ev):

    -1.1748   1.3288   4.1868   6.1511

          k = 0.3750 0.1250 0.6250 (   903 PWs)   bands (ev):

    -3.8658   2.6718   6.1221   8.2404

          k =-0.1250-0.8750 0.1250 (   911 PWs)   bands (ev):

    -1.8260   1.7461   5.2182   6.5270

          k =-0.3750 0.3750 0.3750 (   911 PWs)   bands (ev):

    -4.8927   1.9278   9.6839   9.6839

          k = 0.3750-0.3750 1.1250 (   905 PWs)   bands (ev):

    -2.1628   1.0551   4.7509   8.1294

     highest occupied level (ev):    11.4455

!    total energy              =     -24.07016100 Ry
     estimated scf accuracy    <          2.4E-09 Ry

     The total energy is the sum of the following terms:
     one-electron contribution =       7.42009773 Ry
     hartree contribution      =       2.01036681 Ry
     xc contribution           =      -8.55452751 Ry
     ewald contribution        =     -24.94609803 Ry

     convergence has been achieved in   7 iterations

     Writing output data file ./tmp/diamond.save/

     init_run     :      0.49s CPU      0.11s WALL (       1 calls)
     electrons    :      5.95s CPU      0.65s WALL (       1 calls)

     Called by init_run:
     wfcinit      :      0.37s CPU      0.05s WALL (       1 calls)
     potinit      :      0.03s CPU      0.02s WALL (       1 calls)
     hinit0       :      0.08s CPU      0.04s WALL (       1 calls)

     Called by electrons:
     c_bands      :      4.98s CPU      0.49s WALL (       7 calls)
     sum_band     :      0.56s CPU      0.08s WALL (       7 calls)
     v_of_rho     :      0.41s CPU      0.09s WALL (       8 calls)
     mix_rho      :      0.02s CPU      0.01s WALL (       7 calls)

     Called by c_bands:
     init_us_2    :      0.08s CPU      0.01s WALL (     150 calls)
     cegterg      :      4.76s CPU      0.46s WALL (      70 calls)

     Called by *egterg:
     cdiaghg      :      0.11s CPU      0.01s WALL (     296 calls)
     h_psi        :      4.80s CPU      0.47s WALL (     306 calls)
     g_psi        :      0.03s CPU      0.00s WALL (     226 calls)

     Called by h_psi:
     h_psi:calbec :      0.17s CPU      0.02s WALL (     306 calls)
     vloc_psi     :      4.46s CPU      0.43s WALL (     306 calls)
     add_vuspsi   :      0.15s CPU      0.02s WALL (     306 calls)

     General routines
     calbec       :      0.16s CPU      0.02s WALL (     306 calls)
     fft          :      0.16s CPU      0.04s WALL (      80 calls)
     ffts         :      0.01s CPU      0.00s WALL (       7 calls)
     fftw         :      4.04s CPU      0.41s WALL (    2362 calls)

     Parallel routines

     PWSCF        :      6.66s CPU      0.83s WALL


   This run was terminated on:  23:38:23  19Dec2023            

=------------------------------------------------------------------------------=
   JOB DONE.
=------------------------------------------------------------------------------=
