
     Program PWSCF v.6.6 starts on 19Dec2023 at 23:37:41 

     This program is part of the open-source Quantum ESPRESSO suite
     for quantum simulation of materials; please cite
         "P. Giannozzi et al., J. Phys.:Condens. Matter 21 395502 (2009);
         "P. Giannozzi et al., J. Phys.:Condens. Matter 29 465901 (2017);
          URL http://www.quantum-espresso.org", 
     in publications or presentations arising from this work. More details at
     http://www.quantum-espresso.org/quote

     Parallel version (MPI), running on     1 processors

     MPI processes distributed on     1 nodes
     Fft bands division:     nmany     =       1
     Reading input from lattice-in_6.44.in

     Current dimensions of program PWSCF are:
     Max number of different atomic species (ntypx) = 10
     Max number of k-points (npk) =  40000
     Max angular momentum in pseudopotentials (lmaxx) =  3

     Subspace diagonalization in iterative solution of the eigenvalue problem:
     a serial algorithm will be used


     G-vector sticks info
     --------------------
     sticks:   dense  smooth     PW     G-vecs:    dense   smooth      PW
     Sum         433     433    139                 5961     5961    1067



     bravais-lattice index     =            2
     lattice parameter (alat)  =       6.4400  a.u.
     unit-cell volume          =      66.7725 (a.u.)^3
     number of atoms/cell      =            2
     number of atomic types    =            1
     number of electrons       =         8.00
     number of Kohn-Sham states=            4
     kinetic-energy cutoff     =      75.0000  Ry
     charge density cutoff     =     300.0000  Ry
     convergence threshold     =      1.0E-08
     mixing beta               =       0.7000
     number of iterations used =            8  plain     mixing
     Exchange-correlation= PBE
                           (   1   4   3   4   0   0   0)

     celldm(1)=   6.440000  celldm(2)=   0.000000  celldm(3)=   0.000000
     celldm(4)=   0.000000  celldm(5)=   0.000000  celldm(6)=   0.000000

     crystal axes: (cart. coord. in units of alat)
               a(1) = (  -0.500000   0.000000   0.500000 )  
               a(2) = (   0.000000   0.500000   0.500000 )  
               a(3) = (  -0.500000   0.500000   0.000000 )  

     reciprocal axes: (cart. coord. in units 2 pi/alat)
               b(1) = ( -1.000000 -1.000000  1.000000 )  
               b(2) = (  1.000000  1.000000  1.000000 )  
               b(3) = ( -1.000000  1.000000 -1.000000 )  


     PseudoPot. # 1 for C  read from file:
     ./C.UPF
     MD5 check sum: ead9220225bd72a2f9a48cc2a638047d
     Pseudo is Norm-conserving + core correction, Zval =  4.0
     Generated using ONCVPSP code by D. R. Hamann
     Using radial grid of 1248 points,  4 beta functions with: 
                l(1) =   0
                l(2) =   0
                l(3) =   1
                l(4) =   1

     atomic species   valence    mass     pseudopotential
        C              4.00    12.01070     C ( 1.00)

     48 Sym. Ops., with inversion, found (24 have fractional translation)



   Cartesian axes

     site n.     atom                  positions (alat units)
         1           C   tau(   1) = (   0.0000000   0.0000000   0.0000000  )
         2           C   tau(   2) = (  -0.2500000   0.2500000   0.2500000  )

     number of k points=    10
                       cart. coord. in units 2pi/alat
        k(    1) = (  -0.1250000   0.1250000   0.1250000), wk =   0.0625000
        k(    2) = (  -0.3750000   0.3750000  -0.1250000), wk =   0.1875000
        k(    3) = (   0.3750000  -0.3750000   0.6250000), wk =   0.1875000
        k(    4) = (   0.1250000  -0.1250000   0.3750000), wk =   0.1875000
        k(    5) = (  -0.1250000   0.6250000   0.1250000), wk =   0.1875000
        k(    6) = (   0.6250000  -0.1250000   0.8750000), wk =   0.3750000
        k(    7) = (   0.3750000   0.1250000   0.6250000), wk =   0.3750000
        k(    8) = (  -0.1250000  -0.8750000   0.1250000), wk =   0.1875000
        k(    9) = (  -0.3750000   0.3750000   0.3750000), wk =   0.0625000
        k(   10) = (   0.3750000  -0.3750000   1.1250000), wk =   0.1875000

     Dense  grid:     5961 G-vectors     FFT dimensions: (  32,  32,  32)

     Estimated max dynamical RAM per process >       5.98 MB

     Initial potential from superposition of free atoms

     starting charge    7.99991, renormalised to    8.00000
     Starting wfcs are    8 randomized atomic wfcs

     total cpu time spent up to now is        0.1 secs

     Self-consistent Calculation

     iteration #  1     ecut=    75.00 Ry     beta= 0.70
     Davidson diagonalization with overlap
     ethr =  1.00E-02,  avg # of iterations =  2.0

     total cpu time spent up to now is        0.2 secs

     total energy              =     -24.04065226 Ry
     estimated scf accuracy    <       0.14620013 Ry

     iteration #  2     ecut=    75.00 Ry     beta= 0.70
     Davidson diagonalization with overlap
     ethr =  1.83E-03,  avg # of iterations =  1.3

     total cpu time spent up to now is        0.3 secs

     total energy              =     -24.04907185 Ry
     estimated scf accuracy    <       0.00451369 Ry

     iteration #  3     ecut=    75.00 Ry     beta= 0.70
     Davidson diagonalization with overlap
     ethr =  5.64E-05,  avg # of iterations =  2.7

     total cpu time spent up to now is        0.4 secs

     total energy              =     -24.05082233 Ry
     estimated scf accuracy    <       0.00010015 Ry

     iteration #  4     ecut=    75.00 Ry     beta= 0.70
     Davidson diagonalization with overlap
     ethr =  1.25E-06,  avg # of iterations =  5.0

     total cpu time spent up to now is        0.5 secs

     total energy              =     -24.05092184 Ry
     estimated scf accuracy    <       0.00001775 Ry

     iteration #  5     ecut=    75.00 Ry     beta= 0.70
     Davidson diagonalization with overlap
     ethr =  2.22E-07,  avg # of iterations =  2.2

     total cpu time spent up to now is        0.6 secs

     total energy              =     -24.05092599 Ry
     estimated scf accuracy    <       0.00000086 Ry

     iteration #  6     ecut=    75.00 Ry     beta= 0.70
     Davidson diagonalization with overlap
     ethr =  1.08E-08,  avg # of iterations =  3.8

     total cpu time spent up to now is        0.7 secs

     total energy              =     -24.05092635 Ry
     estimated scf accuracy    <       0.00000001 Ry

     iteration #  7     ecut=    75.00 Ry     beta= 0.70
     Davidson diagonalization with overlap
     ethr =  1.59E-10,  avg # of iterations =  4.6

     total cpu time spent up to now is        0.8 secs

     End of self-consistent calculation

          k =-0.1250 0.1250 0.1250 (   727 PWs)   bands (ev):

    -6.9798  13.2784  15.2131  15.2131

          k =-0.3750 0.3750-0.1250 (   735 PWs)   bands (ev):

    -4.4883   7.4029  11.0623  13.8755

          k = 0.3750-0.3750 0.6250 (   732 PWs)   bands (ev):

    -1.0260   1.9965  11.3514  11.9402

          k = 0.1250-0.1250 0.3750 (   732 PWs)   bands (ev):

    -5.7259  10.3417  12.6528  13.7717

          k =-0.1250 0.6250 0.1250 (   728 PWs)   bands (ev):

    -3.2601   7.8001  10.1536  10.4085

          k = 0.6250-0.1250 0.8750 (   726 PWs)   bands (ev):

     1.2085   3.8274   6.4726   8.6875

          k = 0.3750 0.1250 0.6250 (   732 PWs)   bands (ev):

    -2.0778   5.1357   8.9755  11.3193

          k =-0.1250-0.8750 0.1250 (   731 PWs)   bands (ev):

     0.2886   4.5183   7.5684   9.1995

          k =-0.3750 0.3750 0.3750 (   745 PWs)   bands (ev):

    -3.2751   4.1693  13.0865  13.0865

          k = 0.3750-0.3750 1.1250 (   726 PWs)   bands (ev):

     0.0755   3.1342   7.3388  11.1605

     highest occupied level (ev):    15.2131

!    total energy              =     -24.05092636 Ry
     estimated scf accuracy    <          1.9E-09 Ry

     The total energy is the sum of the following terms:
     one-electron contribution =       9.84399373 Ry
     hartree contribution      =       1.79612313 Ry
     xc contribution           =      -8.92434486 Ry
     ewald contribution        =     -26.76669836 Ry

     convergence has been achieved in   7 iterations

     Writing output data file ./tmp/diamond.save/

     init_run     :      0.41s CPU      0.09s WALL (       1 calls)
     electrons    :      5.34s CPU      0.65s WALL (       1 calls)

     Called by init_run:
     wfcinit      :      0.31s CPU      0.04s WALL (       1 calls)
     potinit      :      0.02s CPU      0.01s WALL (       1 calls)
     hinit0       :      0.07s CPU      0.04s WALL (       1 calls)

     Called by electrons:
     c_bands      :      4.60s CPU      0.50s WALL (       7 calls)
     sum_band     :      0.59s CPU      0.08s WALL (       7 calls)
     v_of_rho     :      0.14s CPU      0.07s WALL (       8 calls)
     mix_rho      :      0.01s CPU      0.01s WALL (       7 calls)

     Called by c_bands:
     init_us_2    :      0.05s CPU      0.01s WALL (     150 calls)
     cegterg      :      4.42s CPU      0.47s WALL (      70 calls)

     Called by *egterg:
     cdiaghg      :      0.07s CPU      0.01s WALL (     286 calls)
     h_psi        :      4.46s CPU      0.47s WALL (     296 calls)
     g_psi        :      0.00s CPU      0.00s WALL (     216 calls)

     Called by h_psi:
     h_psi:calbec :      0.31s CPU      0.03s WALL (     296 calls)
     vloc_psi     :      3.88s CPU      0.41s WALL (     296 calls)
     add_vuspsi   :      0.28s CPU      0.03s WALL (     296 calls)

     General routines
     calbec       :      0.30s CPU      0.03s WALL (     296 calls)
     fft          :      0.07s CPU      0.04s WALL (      80 calls)
     ffts         :      0.01s CPU      0.00s WALL (       7 calls)
     fftw         :      3.67s CPU      0.40s WALL (    2276 calls)

     Parallel routines

     PWSCF        :      5.87s CPU      0.81s WALL


   This run was terminated on:  23:37:42  19Dec2023            

=------------------------------------------------------------------------------=
   JOB DONE.
=------------------------------------------------------------------------------=
