
     Program PWSCF v.6.6 starts on 19Dec2023 at 23:38:33 

     This program is part of the open-source Quantum ESPRESSO suite
     for quantum simulation of materials; please cite
         "P. Giannozzi et al., J. Phys.:Condens. Matter 21 395502 (2009);
         "P. Giannozzi et al., J. Phys.:Condens. Matter 29 465901 (2017);
          URL http://www.quantum-espresso.org", 
     in publications or presentations arising from this work. More details at
     http://www.quantum-espresso.org/quote

     Parallel version (MPI), running on     1 processors

     MPI processes distributed on     1 nodes
     Fft bands division:     nmany     =       1
     Reading input from lattice-in_7.03.in

     Current dimensions of program PWSCF are:
     Max number of different atomic species (ntypx) = 10
     Max number of k-points (npk) =  40000
     Max angular momentum in pseudopotentials (lmaxx) =  3

     Subspace diagonalization in iterative solution of the eigenvalue problem:
     a serial algorithm will be used


     G-vector sticks info
     --------------------
     sticks:   dense  smooth     PW     G-vecs:    dense   smooth      PW
     Sum         511     511    163                 7631     7631    1363



     bravais-lattice index     =            2
     lattice parameter (alat)  =       7.0300  a.u.
     unit-cell volume          =      86.8572 (a.u.)^3
     number of atoms/cell      =            2
     number of atomic types    =            1
     number of electrons       =         8.00
     number of Kohn-Sham states=            4
     kinetic-energy cutoff     =      75.0000  Ry
     charge density cutoff     =     300.0000  Ry
     convergence threshold     =      1.0E-08
     mixing beta               =       0.7000
     number of iterations used =            8  plain     mixing
     Exchange-correlation= PBE
                           (   1   4   3   4   0   0   0)

     celldm(1)=   7.030000  celldm(2)=   0.000000  celldm(3)=   0.000000
     celldm(4)=   0.000000  celldm(5)=   0.000000  celldm(6)=   0.000000

     crystal axes: (cart. coord. in units of alat)
               a(1) = (  -0.500000   0.000000   0.500000 )  
               a(2) = (   0.000000   0.500000   0.500000 )  
               a(3) = (  -0.500000   0.500000   0.000000 )  

     reciprocal axes: (cart. coord. in units 2 pi/alat)
               b(1) = ( -1.000000 -1.000000  1.000000 )  
               b(2) = (  1.000000  1.000000  1.000000 )  
               b(3) = ( -1.000000  1.000000 -1.000000 )  


     PseudoPot. # 1 for C  read from file:
     ./C.UPF
     MD5 check sum: ead9220225bd72a2f9a48cc2a638047d
     Pseudo is Norm-conserving + core correction, Zval =  4.0
     Generated using ONCVPSP code by D. R. Hamann
     Using radial grid of 1248 points,  4 beta functions with: 
                l(1) =   0
                l(2) =   0
                l(3) =   1
                l(4) =   1

     atomic species   valence    mass     pseudopotential
        C              4.00    12.01070     C ( 1.00)

     48 Sym. Ops., with inversion, found (24 have fractional translation)



   Cartesian axes

     site n.     atom                  positions (alat units)
         1           C   tau(   1) = (   0.0000000   0.0000000   0.0000000  )
         2           C   tau(   2) = (  -0.2500000   0.2500000   0.2500000  )

     number of k points=    10
                       cart. coord. in units 2pi/alat
        k(    1) = (  -0.1250000   0.1250000   0.1250000), wk =   0.0625000
        k(    2) = (  -0.3750000   0.3750000  -0.1250000), wk =   0.1875000
        k(    3) = (   0.3750000  -0.3750000   0.6250000), wk =   0.1875000
        k(    4) = (   0.1250000  -0.1250000   0.3750000), wk =   0.1875000
        k(    5) = (  -0.1250000   0.6250000   0.1250000), wk =   0.1875000
        k(    6) = (   0.6250000  -0.1250000   0.8750000), wk =   0.3750000
        k(    7) = (   0.3750000   0.1250000   0.6250000), wk =   0.3750000
        k(    8) = (  -0.1250000  -0.8750000   0.1250000), wk =   0.1875000
        k(    9) = (  -0.3750000   0.3750000   0.3750000), wk =   0.0625000
        k(   10) = (   0.3750000  -0.3750000   1.1250000), wk =   0.1875000

     Dense  grid:     7631 G-vectors     FFT dimensions: (  32,  32,  32)

     Estimated max dynamical RAM per process >       6.93 MB

     Initial potential from superposition of free atoms

     starting charge    7.99991, renormalised to    8.00000
     Starting wfcs are    8 randomized atomic wfcs

     total cpu time spent up to now is        0.2 secs

     Self-consistent Calculation

     iteration #  1     ecut=    75.00 Ry     beta= 0.70
     Davidson diagonalization with overlap
     ethr =  1.00E-02,  avg # of iterations =  2.0

     Threshold (ethr) on eigenvalues was too large:
     Diagonalizing with lowered threshold

     Davidson diagonalization with overlap
     ethr =  9.92E-04,  avg # of iterations =  1.2

     total cpu time spent up to now is        0.3 secs

     total energy              =     -24.05418490 Ry
     estimated scf accuracy    <       0.08409978 Ry

     iteration #  2     ecut=    75.00 Ry     beta= 0.70
     Davidson diagonalization with overlap
     ethr =  1.05E-03,  avg # of iterations =  1.0

     total cpu time spent up to now is        0.4 secs

     total energy              =     -24.05906926 Ry
     estimated scf accuracy    <       0.00243441 Ry

     iteration #  3     ecut=    75.00 Ry     beta= 0.70
     Davidson diagonalization with overlap
     ethr =  3.04E-05,  avg # of iterations =  2.6

     total cpu time spent up to now is        0.4 secs

     total energy              =     -24.05979653 Ry
     estimated scf accuracy    <       0.00007265 Ry

     iteration #  4     ecut=    75.00 Ry     beta= 0.70
     Davidson diagonalization with overlap
     ethr =  9.08E-07,  avg # of iterations =  5.0

     total cpu time spent up to now is        0.6 secs

     total energy              =     -24.05986993 Ry
     estimated scf accuracy    <       0.00000125 Ry

     iteration #  5     ecut=    75.00 Ry     beta= 0.70
     Davidson diagonalization with overlap
     ethr =  1.57E-08,  avg # of iterations =  4.9

     total cpu time spent up to now is        0.7 secs

     total energy              =     -24.05987151 Ry
     estimated scf accuracy    <       0.00000006 Ry

     iteration #  6     ecut=    75.00 Ry     beta= 0.70
     Davidson diagonalization with overlap
     ethr =  7.22E-10,  avg # of iterations =  3.8

     total cpu time spent up to now is        0.8 secs

     total energy              =     -24.05987155 Ry
     estimated scf accuracy    <       0.00000002 Ry

     iteration #  7     ecut=    75.00 Ry     beta= 0.70
     Davidson diagonalization with overlap
     ethr =  1.91E-10,  avg # of iterations =  2.3

     total cpu time spent up to now is        0.9 secs

     End of self-consistent calculation

          k =-0.1250 0.1250 0.1250 (   938 PWs)   bands (ev):

    -8.2801   8.9852  10.6176  10.6176

          k =-0.3750 0.3750-0.1250 (   950 PWs)   bands (ev):

    -6.2181   4.0590   7.2634   9.5472

          k = 0.3750-0.3750 0.6250 (   952 PWs)   bands (ev):

    -3.5727  -0.2082   7.4111   8.0608

          k = 0.1250-0.1250 0.3750 (   947 PWs)   bands (ev):

    -7.2365   6.5117   8.6636   9.2943

          k =-0.1250 0.6250 0.1250 (   955 PWs)   bands (ev):

    -5.1972   4.1459   6.4753   6.8996

          k = 0.6250-0.1250 0.8750 (   952 PWs)   bands (ev):

    -1.7023   0.7616   3.7009   5.5934

          k = 0.3750 0.1250 0.6250 (   950 PWs)   bands (ev):

    -4.2624   2.1202   5.5020   7.5653

          k =-0.1250-0.8750 0.1250 (   961 PWs)   bands (ev):

    -2.2962   1.1312   4.7023   5.9392

          k =-0.3750 0.3750 0.3750 (   941 PWs)   bands (ev):

    -5.2505   1.4365   8.9368   8.9368

          k = 0.3750-0.3750 1.1250 (   955 PWs)   bands (ev):

    -2.6580   0.5841   4.1950   7.4629

     highest occupied level (ev):    10.6176

!    total energy              =     -24.05987155 Ry
     estimated scf accuracy    <          1.8E-10 Ry

     The total energy is the sum of the following terms:
     one-electron contribution =       6.86459657 Ry
     hartree contribution      =       2.06664327 Ry
     xc contribution           =      -8.47083580 Ry
     ewald contribution        =     -24.52027559 Ry

     convergence has been achieved in   7 iterations

     Writing output data file ./tmp/diamond.save/

     init_run     :      0.52s CPU      0.09s WALL (       1 calls)
     electrons    :      5.90s CPU      0.70s WALL (       1 calls)

     Called by init_run:
     wfcinit      :      0.42s CPU      0.04s WALL (       1 calls)
     potinit      :      0.02s CPU      0.01s WALL (       1 calls)
     hinit0       :      0.07s CPU      0.04s WALL (       1 calls)

     Called by electrons:
     c_bands      :      5.00s CPU      0.51s WALL (       8 calls)
     sum_band     :      0.73s CPU      0.10s WALL (       8 calls)
     v_of_rho     :      0.17s CPU      0.09s WALL (       8 calls)
     mix_rho      :      0.01s CPU      0.01s WALL (       8 calls)

     Called by c_bands:
     init_us_2    :      0.11s CPU      0.02s WALL (     170 calls)
     cegterg      :      4.64s CPU      0.48s WALL (      80 calls)

     Called by *egterg:
     cdiaghg      :      0.15s CPU      0.01s WALL (     298 calls)
     h_psi        :      4.75s CPU      0.48s WALL (     318 calls)
     g_psi        :      0.00s CPU      0.00s WALL (     228 calls)

     Called by h_psi:
     h_psi:calbec :      0.27s CPU      0.02s WALL (     318 calls)
     vloc_psi     :      4.24s CPU      0.44s WALL (     318 calls)
     add_vuspsi   :      0.18s CPU      0.02s WALL (     318 calls)

     General routines
     calbec       :      0.27s CPU      0.02s WALL (     318 calls)
     fft          :      0.08s CPU      0.04s WALL (      81 calls)
     ffts         :      0.04s CPU      0.00s WALL (       8 calls)
     fftw         :      4.03s CPU      0.43s WALL (    2498 calls)

     Parallel routines

     PWSCF        :      6.55s CPU      0.86s WALL


   This run was terminated on:  23:38:34  19Dec2023            

=------------------------------------------------------------------------------=
   JOB DONE.
=------------------------------------------------------------------------------=
