
     Program PWSCF v.6.6 starts on 19Dec2023 at 23:38:26 

     This program is part of the open-source Quantum ESPRESSO suite
     for quantum simulation of materials; please cite
         "P. Giannozzi et al., J. Phys.:Condens. Matter 21 395502 (2009);
         "P. Giannozzi et al., J. Phys.:Condens. Matter 29 465901 (2017);
          URL http://www.quantum-espresso.org", 
     in publications or presentations arising from this work. More details at
     http://www.quantum-espresso.org/quote

     Parallel version (MPI), running on     1 processors

     MPI processes distributed on     1 nodes
     Fft bands division:     nmany     =       1
     Reading input from lattice-in_6.95.in

     Current dimensions of program PWSCF are:
     Max number of different atomic species (ntypx) = 10
     Max number of k-points (npk) =  40000
     Max angular momentum in pseudopotentials (lmaxx) =  3

     Subspace diagonalization in iterative solution of the eigenvalue problem:
     a serial algorithm will be used


     G-vector sticks info
     --------------------
     sticks:   dense  smooth     PW     G-vecs:    dense   smooth      PW
     Sum         499     499    163                 7391     7391    1363



     bravais-lattice index     =            2
     lattice parameter (alat)  =       6.9500  a.u.
     unit-cell volume          =      83.9256 (a.u.)^3
     number of atoms/cell      =            2
     number of atomic types    =            1
     number of electrons       =         8.00
     number of Kohn-Sham states=            4
     kinetic-energy cutoff     =      75.0000  Ry
     charge density cutoff     =     300.0000  Ry
     convergence threshold     =      1.0E-08
     mixing beta               =       0.7000
     number of iterations used =            8  plain     mixing
     Exchange-correlation= PBE
                           (   1   4   3   4   0   0   0)

     celldm(1)=   6.950000  celldm(2)=   0.000000  celldm(3)=   0.000000
     celldm(4)=   0.000000  celldm(5)=   0.000000  celldm(6)=   0.000000

     crystal axes: (cart. coord. in units of alat)
               a(1) = (  -0.500000   0.000000   0.500000 )  
               a(2) = (   0.000000   0.500000   0.500000 )  
               a(3) = (  -0.500000   0.500000   0.000000 )  

     reciprocal axes: (cart. coord. in units 2 pi/alat)
               b(1) = ( -1.000000 -1.000000  1.000000 )  
               b(2) = (  1.000000  1.000000  1.000000 )  
               b(3) = ( -1.000000  1.000000 -1.000000 )  


     PseudoPot. # 1 for C  read from file:
     ./C.UPF
     MD5 check sum: ead9220225bd72a2f9a48cc2a638047d
     Pseudo is Norm-conserving + core correction, Zval =  4.0
     Generated using ONCVPSP code by D. R. Hamann
     Using radial grid of 1248 points,  4 beta functions with: 
                l(1) =   0
                l(2) =   0
                l(3) =   1
                l(4) =   1

     atomic species   valence    mass     pseudopotential
        C              4.00    12.01070     C ( 1.00)

     48 Sym. Ops., with inversion, found (24 have fractional translation)



   Cartesian axes

     site n.     atom                  positions (alat units)
         1           C   tau(   1) = (   0.0000000   0.0000000   0.0000000  )
         2           C   tau(   2) = (  -0.2500000   0.2500000   0.2500000  )

     number of k points=    10
                       cart. coord. in units 2pi/alat
        k(    1) = (  -0.1250000   0.1250000   0.1250000), wk =   0.0625000
        k(    2) = (  -0.3750000   0.3750000  -0.1250000), wk =   0.1875000
        k(    3) = (   0.3750000  -0.3750000   0.6250000), wk =   0.1875000
        k(    4) = (   0.1250000  -0.1250000   0.3750000), wk =   0.1875000
        k(    5) = (  -0.1250000   0.6250000   0.1250000), wk =   0.1875000
        k(    6) = (   0.6250000  -0.1250000   0.8750000), wk =   0.3750000
        k(    7) = (   0.3750000   0.1250000   0.6250000), wk =   0.3750000
        k(    8) = (  -0.1250000  -0.8750000   0.1250000), wk =   0.1875000
        k(    9) = (  -0.3750000   0.3750000   0.3750000), wk =   0.0625000
        k(   10) = (   0.3750000  -0.3750000   1.1250000), wk =   0.1875000

     Dense  grid:     7391 G-vectors     FFT dimensions: (  32,  32,  32)

     Estimated max dynamical RAM per process >       6.79 MB

     Initial potential from superposition of free atoms

     starting charge    7.99991, renormalised to    8.00000
     Starting wfcs are    8 randomized atomic wfcs

     total cpu time spent up to now is        0.2 secs

     Self-consistent Calculation

     iteration #  1     ecut=    75.00 Ry     beta= 0.70
     Davidson diagonalization with overlap
     ethr =  1.00E-02,  avg # of iterations =  2.0

     total cpu time spent up to now is        0.2 secs

     total energy              =     -24.06046307 Ry
     estimated scf accuracy    <       0.08670692 Ry

     iteration #  2     ecut=    75.00 Ry     beta= 0.70
     Davidson diagonalization with overlap
     ethr =  1.08E-03,  avg # of iterations =  1.4

     total cpu time spent up to now is        0.3 secs

     total energy              =     -24.06585625 Ry
     estimated scf accuracy    <       0.00329930 Ry

     iteration #  3     ecut=    75.00 Ry     beta= 0.70
     Davidson diagonalization with overlap
     ethr =  4.12E-05,  avg # of iterations =  2.9

     total cpu time spent up to now is        0.4 secs

     total energy              =     -24.06716392 Ry
     estimated scf accuracy    <       0.00008027 Ry

     iteration #  4     ecut=    75.00 Ry     beta= 0.70
     Davidson diagonalization with overlap
     ethr =  1.00E-06,  avg # of iterations =  4.8

     total cpu time spent up to now is        0.5 secs

     total energy              =     -24.06727651 Ry
     estimated scf accuracy    <       0.00001211 Ry

     iteration #  5     ecut=    75.00 Ry     beta= 0.70
     Davidson diagonalization with overlap
     ethr =  1.51E-07,  avg # of iterations =  2.6

     total cpu time spent up to now is        0.6 secs

     total energy              =     -24.06728001 Ry
     estimated scf accuracy    <       0.00000031 Ry

     iteration #  6     ecut=    75.00 Ry     beta= 0.70
     Davidson diagonalization with overlap
     ethr =  3.92E-09,  avg # of iterations =  4.3

     total cpu time spent up to now is        0.7 secs

     total energy              =     -24.06728031 Ry
     estimated scf accuracy    <       0.00000001 Ry

     iteration #  7     ecut=    75.00 Ry     beta= 0.70
     Davidson diagonalization with overlap
     ethr =  1.32E-10,  avg # of iterations =  4.3

     total cpu time spent up to now is        0.8 secs

     End of self-consistent calculation

          k =-0.1250 0.1250 0.1250 (   914 PWs)   bands (ev):

    -8.1291   9.4997  11.1644  11.1644

          k =-0.3750 0.3750-0.1250 (   921 PWs)   bands (ev):

    -6.0129   4.4613   7.7145  10.0615

          k = 0.3750-0.3750 0.6250 (   921 PWs)   bands (ev):

    -3.2681   0.0547   7.8792   8.5222

          k = 0.1250-0.1250 0.3750 (   921 PWs)   bands (ev):

    -7.0590   6.9742   9.1390   9.8250

          k =-0.1250 0.6250 0.1250 (   916 PWs)   bands (ev):

    -4.9664   4.5925   6.9054   7.3175

          k = 0.6250-0.1250 0.8750 (   921 PWs)   bands (ev):

    -1.3539   1.1369   4.0211   5.9617

          k = 0.3750 0.1250 0.6250 (   919 PWs)   bands (ev):

    -4.0003   2.4850   5.9112   8.0110

          k =-0.1250-0.8750 0.1250 (   927 PWs)   bands (ev):

    -1.9855   1.5375   5.0428   6.3274

          k =-0.3750 0.3750 0.3750 (   920 PWs)   bands (ev):

    -5.0141   1.7610   9.4301   9.4301

          k = 0.3750-0.3750 1.1250 (   923 PWs)   bands (ev):

    -2.3309   0.8959   4.5613   7.9029

     highest occupied level (ev):    11.1644

!    total energy              =     -24.06728032 Ry
     estimated scf accuracy    <          1.8E-09 Ry

     The total energy is the sum of the following terms:
     one-electron contribution =       7.23238837 Ry
     hartree contribution      =       2.02901831 Ry
     xc contribution           =      -8.52616363 Ry
     ewald contribution        =     -24.80252337 Ry

     convergence has been achieved in   7 iterations

     Writing output data file ./tmp/diamond.save/

     init_run     :      0.48s CPU      0.10s WALL (       1 calls)
     electrons    :      5.98s CPU      0.68s WALL (       1 calls)

     Called by init_run:
     wfcinit      :      0.37s CPU      0.04s WALL (       1 calls)
     potinit      :      0.03s CPU      0.01s WALL (       1 calls)
     hinit0       :      0.07s CPU      0.04s WALL (       1 calls)

     Called by electrons:
     c_bands      :      4.95s CPU      0.49s WALL (       7 calls)
     sum_band     :      0.77s CPU      0.09s WALL (       7 calls)
     v_of_rho     :      0.25s CPU      0.10s WALL (       8 calls)
     mix_rho      :      0.02s CPU      0.01s WALL (       7 calls)

     Called by c_bands:
     init_us_2    :      0.08s CPU      0.02s WALL (     150 calls)
     cegterg      :      4.78s CPU      0.47s WALL (      70 calls)

     Called by *egterg:
     cdiaghg      :      0.07s CPU      0.01s WALL (     293 calls)
     h_psi        :      4.75s CPU      0.47s WALL (     303 calls)
     g_psi        :      0.02s CPU      0.00s WALL (     223 calls)

     Called by h_psi:
     h_psi:calbec :      0.33s CPU      0.03s WALL (     303 calls)
     vloc_psi     :      4.18s CPU      0.41s WALL (     303 calls)
     add_vuspsi   :      0.23s CPU      0.02s WALL (     303 calls)

     General routines
     calbec       :      0.33s CPU      0.03s WALL (     303 calls)
     fft          :      0.13s CPU      0.04s WALL (      80 calls)
     ffts         :      0.02s CPU      0.00s WALL (       7 calls)
     fftw         :      4.11s CPU      0.40s WALL (    2372 calls)

     Parallel routines

     PWSCF        :      6.85s CPU      0.86s WALL


   This run was terminated on:  23:38:27  19Dec2023            

=------------------------------------------------------------------------------=
   JOB DONE.
=------------------------------------------------------------------------------=
