
     Program PWSCF v.6.6 starts on 19Dec2023 at 23:38:17 

     This program is part of the open-source Quantum ESPRESSO suite
     for quantum simulation of materials; please cite
         "P. Giannozzi et al., J. Phys.:Condens. Matter 21 395502 (2009);
         "P. Giannozzi et al., J. Phys.:Condens. Matter 29 465901 (2017);
          URL http://www.quantum-espresso.org", 
     in publications or presentations arising from this work. More details at
     http://www.quantum-espresso.org/quote

     Parallel version (MPI), running on     1 processors

     MPI processes distributed on     1 nodes
     Fft bands division:     nmany     =       1
     Reading input from lattice-in_6.85.in

     Current dimensions of program PWSCF are:
     Max number of different atomic species (ntypx) = 10
     Max number of k-points (npk) =  40000
     Max angular momentum in pseudopotentials (lmaxx) =  3

     Subspace diagonalization in iterative solution of the eigenvalue problem:
     a serial algorithm will be used


     G-vector sticks info
     --------------------
     sticks:   dense  smooth     PW     G-vecs:    dense   smooth      PW
     Sum         499     499    151                 7119     7119    1243



     bravais-lattice index     =            2
     lattice parameter (alat)  =       6.8500  a.u.
     unit-cell volume          =      80.3548 (a.u.)^3
     number of atoms/cell      =            2
     number of atomic types    =            1
     number of electrons       =         8.00
     number of Kohn-Sham states=            4
     kinetic-energy cutoff     =      75.0000  Ry
     charge density cutoff     =     300.0000  Ry
     convergence threshold     =      1.0E-08
     mixing beta               =       0.7000
     number of iterations used =            8  plain     mixing
     Exchange-correlation= PBE
                           (   1   4   3   4   0   0   0)

     celldm(1)=   6.850000  celldm(2)=   0.000000  celldm(3)=   0.000000
     celldm(4)=   0.000000  celldm(5)=   0.000000  celldm(6)=   0.000000

     crystal axes: (cart. coord. in units of alat)
               a(1) = (  -0.500000   0.000000   0.500000 )  
               a(2) = (   0.000000   0.500000   0.500000 )  
               a(3) = (  -0.500000   0.500000   0.000000 )  

     reciprocal axes: (cart. coord. in units 2 pi/alat)
               b(1) = ( -1.000000 -1.000000  1.000000 )  
               b(2) = (  1.000000  1.000000  1.000000 )  
               b(3) = ( -1.000000  1.000000 -1.000000 )  


     PseudoPot. # 1 for C  read from file:
     ./C.UPF
     MD5 check sum: ead9220225bd72a2f9a48cc2a638047d
     Pseudo is Norm-conserving + core correction, Zval =  4.0
     Generated using ONCVPSP code by D. R. Hamann
     Using radial grid of 1248 points,  4 beta functions with: 
                l(1) =   0
                l(2) =   0
                l(3) =   1
                l(4) =   1

     atomic species   valence    mass     pseudopotential
        C              4.00    12.01070     C ( 1.00)

     48 Sym. Ops., with inversion, found (24 have fractional translation)



   Cartesian axes

     site n.     atom                  positions (alat units)
         1           C   tau(   1) = (   0.0000000   0.0000000   0.0000000  )
         2           C   tau(   2) = (  -0.2500000   0.2500000   0.2500000  )

     number of k points=    10
                       cart. coord. in units 2pi/alat
        k(    1) = (  -0.1250000   0.1250000   0.1250000), wk =   0.0625000
        k(    2) = (  -0.3750000   0.3750000  -0.1250000), wk =   0.1875000
        k(    3) = (   0.3750000  -0.3750000   0.6250000), wk =   0.1875000
        k(    4) = (   0.1250000  -0.1250000   0.3750000), wk =   0.1875000
        k(    5) = (  -0.1250000   0.6250000   0.1250000), wk =   0.1875000
        k(    6) = (   0.6250000  -0.1250000   0.8750000), wk =   0.3750000
        k(    7) = (   0.3750000   0.1250000   0.6250000), wk =   0.3750000
        k(    8) = (  -0.1250000  -0.8750000   0.1250000), wk =   0.1875000
        k(    9) = (  -0.3750000   0.3750000   0.3750000), wk =   0.0625000
        k(   10) = (   0.3750000  -0.3750000   1.1250000), wk =   0.1875000

     Dense  grid:     7119 G-vectors     FFT dimensions: (  32,  32,  32)

     Estimated max dynamical RAM per process >       6.63 MB

     Initial potential from superposition of free atoms

     starting charge    7.99991, renormalised to    8.00000
     Starting wfcs are    8 randomized atomic wfcs

     total cpu time spent up to now is        0.2 secs

     Self-consistent Calculation

     iteration #  1     ecut=    75.00 Ry     beta= 0.70
     Davidson diagonalization with overlap
     ethr =  1.00E-02,  avg # of iterations =  2.0

     total cpu time spent up to now is        0.3 secs

     total energy              =     -24.06614470 Ry
     estimated scf accuracy    <       0.09631873 Ry

     iteration #  2     ecut=    75.00 Ry     beta= 0.70
     Davidson diagonalization with overlap
     ethr =  1.20E-03,  avg # of iterations =  1.3

     total cpu time spent up to now is        0.3 secs

     total energy              =     -24.07187441 Ry
     estimated scf accuracy    <       0.00349413 Ry

     iteration #  3     ecut=    75.00 Ry     beta= 0.70
     Davidson diagonalization with overlap
     ethr =  4.37E-05,  avg # of iterations =  2.8

     total cpu time spent up to now is        0.4 secs

     total energy              =     -24.07325335 Ry
     estimated scf accuracy    <       0.00008206 Ry

     iteration #  4     ecut=    75.00 Ry     beta= 0.70
     Davidson diagonalization with overlap
     ethr =  1.03E-06,  avg # of iterations =  5.3

     total cpu time spent up to now is        0.6 secs

     total energy              =     -24.07336148 Ry
     estimated scf accuracy    <       0.00001216 Ry

     iteration #  5     ecut=    75.00 Ry     beta= 0.70
     Davidson diagonalization with overlap
     ethr =  1.52E-07,  avg # of iterations =  2.6

     total cpu time spent up to now is        0.6 secs

     total energy              =     -24.07336479 Ry
     estimated scf accuracy    <       0.00000063 Ry

     iteration #  6     ecut=    75.00 Ry     beta= 0.70
     Davidson diagonalization with overlap
     ethr =  7.92E-09,  avg # of iterations =  3.3

     total cpu time spent up to now is        0.7 secs

     total energy              =     -24.07336503 Ry
     estimated scf accuracy    <       0.00000001 Ry

     iteration #  7     ecut=    75.00 Ry     beta= 0.70
     Davidson diagonalization with overlap
     ethr =  1.25E-10,  avg # of iterations =  4.6

     total cpu time spent up to now is        0.8 secs

     End of self-consistent calculation

          k =-0.1250 0.1250 0.1250 (   899 PWs)   bands (ev):

    -7.9305  10.1698  11.8786  11.8786

          k =-0.3750 0.3750-0.1250 (   882 PWs)   bands (ev):

    -5.7448   4.9845   8.3041  10.7337

          k = 0.3750-0.3750 0.6250 (   883 PWs)   bands (ev):

    -2.8706   0.3971   8.4912   9.1252

          k = 0.1250-0.1250 0.3750 (   885 PWs)   bands (ev):

    -6.8264   7.5749   9.7596  10.5196

          k =-0.1250 0.6250 0.1250 (   876 PWs)   bands (ev):

    -4.6653   5.1705   7.4704   7.8632

          k = 0.6250-0.1250 0.8750 (   884 PWs)   bands (ev):

    -0.8995   1.6228   4.4431   6.4426

          k = 0.3750 0.1250 0.6250 (   880 PWs)   bands (ev):

    -3.6589   2.9583   6.4475   8.5936

          k =-0.1250-0.8750 0.1250 (   883 PWs)   bands (ev):

    -1.5811   2.0668   5.4881   6.8342

          k =-0.3750 0.3750 0.3750 (   878 PWs)   bands (ev):

    -4.7060   2.1849  10.0747  10.0747

          k = 0.3750-0.3750 1.1250 (   874 PWs)   bands (ev):

    -1.9041   1.2986   5.0438   8.4781

     highest occupied level (ev):    11.8786

!    total energy              =     -24.07336504 Ry
     estimated scf accuracy    <          1.9E-09 Ry

     The total energy is the sum of the following terms:
     one-electron contribution =       7.70669207 Ry
     hartree contribution      =       1.98245314 Ry
     xc contribution           =      -8.59790625 Ry
     ewald contribution        =     -25.16460400 Ry

     convergence has been achieved in   7 iterations

     Writing output data file ./tmp/diamond.save/

     init_run     :      0.61s CPU      0.11s WALL (       1 calls)
     electrons    :      6.26s CPU      0.68s WALL (       1 calls)

     Called by init_run:
     wfcinit      :      0.51s CPU      0.05s WALL (       1 calls)
     potinit      :      0.02s CPU      0.01s WALL (       1 calls)
     hinit0       :      0.07s CPU      0.04s WALL (       1 calls)

     Called by electrons:
     c_bands      :      5.10s CPU      0.52s WALL (       7 calls)
     sum_band     :      0.73s CPU      0.08s WALL (       7 calls)
     v_of_rho     :      0.43s CPU      0.08s WALL (       8 calls)
     mix_rho      :      0.01s CPU      0.01s WALL (       7 calls)

     Called by c_bands:
     init_us_2    :      0.13s CPU      0.01s WALL (     150 calls)
     cegterg      :      4.84s CPU      0.49s WALL (      70 calls)

     Called by *egterg:
     cdiaghg      :      0.10s CPU      0.01s WALL (     289 calls)
     h_psi        :      4.90s CPU      0.50s WALL (     299 calls)
     g_psi        :      0.06s CPU      0.00s WALL (     219 calls)

     Called by h_psi:
     h_psi:calbec :      0.46s CPU      0.04s WALL (     299 calls)
     vloc_psi     :      4.01s CPU      0.42s WALL (     299 calls)
     add_vuspsi   :      0.42s CPU      0.04s WALL (     299 calls)

     General routines
     calbec       :      0.44s CPU      0.04s WALL (     299 calls)
     fft          :      0.19s CPU      0.04s WALL (      80 calls)
     ffts         :      0.01s CPU      0.00s WALL (       7 calls)
     fftw         :      3.86s CPU      0.40s WALL (    2324 calls)

     Parallel routines

     PWSCF        :      7.00s CPU      0.85s WALL


   This run was terminated on:  23:38:18  19Dec2023            

=------------------------------------------------------------------------------=
   JOB DONE.
=------------------------------------------------------------------------------=
