
     Program PWSCF v.6.6 starts on 19Dec2023 at 23:38: 3 

     This program is part of the open-source Quantum ESPRESSO suite
     for quantum simulation of materials; please cite
         "P. Giannozzi et al., J. Phys.:Condens. Matter 21 395502 (2009);
         "P. Giannozzi et al., J. Phys.:Condens. Matter 29 465901 (2017);
          URL http://www.quantum-espresso.org", 
     in publications or presentations arising from this work. More details at
     http://www.quantum-espresso.org/quote

     Parallel version (MPI), running on     1 processors

     MPI processes distributed on     1 nodes
     Fft bands division:     nmany     =       1
     Reading input from lattice-in_6.69.in

     Current dimensions of program PWSCF are:
     Max number of different atomic species (ntypx) = 10
     Max number of k-points (npk) =  40000
     Max angular momentum in pseudopotentials (lmaxx) =  3

     Subspace diagonalization in iterative solution of the eigenvalue problem:
     a serial algorithm will be used


     G-vector sticks info
     --------------------
     sticks:   dense  smooth     PW     G-vecs:    dense   smooth      PW
     Sum         463     463    151                 6615     6615    1243



     bravais-lattice index     =            2
     lattice parameter (alat)  =       6.6900  a.u.
     unit-cell volume          =      74.8546 (a.u.)^3
     number of atoms/cell      =            2
     number of atomic types    =            1
     number of electrons       =         8.00
     number of Kohn-Sham states=            4
     kinetic-energy cutoff     =      75.0000  Ry
     charge density cutoff     =     300.0000  Ry
     convergence threshold     =      1.0E-08
     mixing beta               =       0.7000
     number of iterations used =            8  plain     mixing
     Exchange-correlation= PBE
                           (   1   4   3   4   0   0   0)

     celldm(1)=   6.690000  celldm(2)=   0.000000  celldm(3)=   0.000000
     celldm(4)=   0.000000  celldm(5)=   0.000000  celldm(6)=   0.000000

     crystal axes: (cart. coord. in units of alat)
               a(1) = (  -0.500000   0.000000   0.500000 )  
               a(2) = (   0.000000   0.500000   0.500000 )  
               a(3) = (  -0.500000   0.500000   0.000000 )  

     reciprocal axes: (cart. coord. in units 2 pi/alat)
               b(1) = ( -1.000000 -1.000000  1.000000 )  
               b(2) = (  1.000000  1.000000  1.000000 )  
               b(3) = ( -1.000000  1.000000 -1.000000 )  


     PseudoPot. # 1 for C  read from file:
     ./C.UPF
     MD5 check sum: ead9220225bd72a2f9a48cc2a638047d
     Pseudo is Norm-conserving + core correction, Zval =  4.0
     Generated using ONCVPSP code by D. R. Hamann
     Using radial grid of 1248 points,  4 beta functions with: 
                l(1) =   0
                l(2) =   0
                l(3) =   1
                l(4) =   1

     atomic species   valence    mass     pseudopotential
        C              4.00    12.01070     C ( 1.00)

     48 Sym. Ops., with inversion, found (24 have fractional translation)



   Cartesian axes

     site n.     atom                  positions (alat units)
         1           C   tau(   1) = (   0.0000000   0.0000000   0.0000000  )
         2           C   tau(   2) = (  -0.2500000   0.2500000   0.2500000  )

     number of k points=    10
                       cart. coord. in units 2pi/alat
        k(    1) = (  -0.1250000   0.1250000   0.1250000), wk =   0.0625000
        k(    2) = (  -0.3750000   0.3750000  -0.1250000), wk =   0.1875000
        k(    3) = (   0.3750000  -0.3750000   0.6250000), wk =   0.1875000
        k(    4) = (   0.1250000  -0.1250000   0.3750000), wk =   0.1875000
        k(    5) = (  -0.1250000   0.6250000   0.1250000), wk =   0.1875000
        k(    6) = (   0.6250000  -0.1250000   0.8750000), wk =   0.3750000
        k(    7) = (   0.3750000   0.1250000   0.6250000), wk =   0.3750000
        k(    8) = (  -0.1250000  -0.8750000   0.1250000), wk =   0.1875000
        k(    9) = (  -0.3750000   0.3750000   0.3750000), wk =   0.0625000
        k(   10) = (   0.3750000  -0.3750000   1.1250000), wk =   0.1875000

     Dense  grid:     6615 G-vectors     FFT dimensions: (  32,  32,  32)

     Estimated max dynamical RAM per process >       6.35 MB

     Initial potential from superposition of free atoms

     starting charge    7.99991, renormalised to    8.00000
     Starting wfcs are    8 randomized atomic wfcs

     total cpu time spent up to now is        0.2 secs

     Self-consistent Calculation

     iteration #  1     ecut=    75.00 Ry     beta= 0.70
     Davidson diagonalization with overlap
     ethr =  1.00E-02,  avg # of iterations =  2.0

     total cpu time spent up to now is        0.3 secs

     total energy              =     -24.06626889 Ry
     estimated scf accuracy    <       0.11400780 Ry

     iteration #  2     ecut=    75.00 Ry     beta= 0.70
     Davidson diagonalization with overlap
     ethr =  1.43E-03,  avg # of iterations =  1.3

     total cpu time spent up to now is        0.3 secs

     total energy              =     -24.07300829 Ry
     estimated scf accuracy    <       0.00380537 Ry

     iteration #  3     ecut=    75.00 Ry     beta= 0.70
     Davidson diagonalization with overlap
     ethr =  4.76E-05,  avg # of iterations =  2.8

     total cpu time spent up to now is        0.4 secs

     total energy              =     -24.07451321 Ry
     estimated scf accuracy    <       0.00008656 Ry

     iteration #  4     ecut=    75.00 Ry     beta= 0.70
     Davidson diagonalization with overlap
     ethr =  1.08E-06,  avg # of iterations =  5.3

     total cpu time spent up to now is        0.5 secs

     total energy              =     -24.07461476 Ry
     estimated scf accuracy    <       0.00001269 Ry

     iteration #  5     ecut=    75.00 Ry     beta= 0.70
     Davidson diagonalization with overlap
     ethr =  1.59E-07,  avg # of iterations =  2.6

     total cpu time spent up to now is        0.6 secs

     total energy              =     -24.07461781 Ry
     estimated scf accuracy    <       0.00000074 Ry

     iteration #  6     ecut=    75.00 Ry     beta= 0.70
     Davidson diagonalization with overlap
     ethr =  9.22E-09,  avg # of iterations =  3.1

     total cpu time spent up to now is        0.7 secs

     total energy              =     -24.07461806 Ry
     estimated scf accuracy    <       0.00000002 Ry

     iteration #  7     ecut=    75.00 Ry     beta= 0.70
     Davidson diagonalization with overlap
     ethr =  2.10E-10,  avg # of iterations =  4.5

     total cpu time spent up to now is        0.8 secs

     End of self-consistent calculation

          k =-0.1250 0.1250 0.1250 (   833 PWs)   bands (ev):

    -7.5874  11.3104  13.0980  13.0980

          k =-0.3750 0.3750-0.1250 (   823 PWs)   bands (ev):

    -5.2864   5.8722   9.3117  11.8821

          k = 0.3750-0.3750 0.6250 (   821 PWs)   bands (ev):

    -2.1934   0.9801   9.5364  10.1546

          k = 0.1250-0.1250 0.3750 (   830 PWs)   bands (ev):

    -6.4270   8.5926  10.8181  11.7069

          k =-0.1250 0.6250 0.1250 (   825 PWs)   bands (ev):

    -4.1516   6.1441   8.4429   8.7942

          k = 0.6250-0.1250 0.8750 (   818 PWs)   bands (ev):

    -0.1259   2.4406   5.1734   7.2635

          k = 0.3750 0.1250 0.6250 (   817 PWs)   bands (ev):

    -3.0786   3.7594   7.3679   9.5891

          k =-0.1250-0.8750 0.1250 (   812 PWs)   bands (ev):

    -0.8942   2.9665   6.2482   7.6993

          k =-0.3750 0.3750 0.3750 (   820 PWs)   bands (ev):

    -4.1815   2.9086  11.1757  11.1757

          k = 0.3750-0.3750 1.1250 (   822 PWs)   bands (ev):

    -1.1775   1.9764   5.8753   9.4588

     highest occupied level (ev):    13.0980

!    total energy              =     -24.07461808 Ry
     estimated scf accuracy    <          2.4E-09 Ry

     The total energy is the sum of the following terms:
     one-electron contribution =       8.50179990 Ry
     hartree contribution      =       1.90895340 Ry
     xc contribution           =      -8.71892334 Ry
     ewald contribution        =     -25.76644804 Ry

     convergence has been achieved in   7 iterations

     Writing output data file ./tmp/diamond.save/

     init_run     :      0.52s CPU      0.10s WALL (       1 calls)
     electrons    :      5.81s CPU      0.66s WALL (       1 calls)

     Called by init_run:
     wfcinit      :      0.41s CPU      0.04s WALL (       1 calls)
     potinit      :      0.03s CPU      0.02s WALL (       1 calls)
     hinit0       :      0.07s CPU      0.04s WALL (       1 calls)

     Called by electrons:
     c_bands      :      4.71s CPU      0.50s WALL (       7 calls)
     sum_band     :      0.76s CPU      0.08s WALL (       7 calls)
     v_of_rho     :      0.34s CPU      0.08s WALL (       8 calls)
     mix_rho      :      0.02s CPU      0.01s WALL (       7 calls)

     Called by c_bands:
     init_us_2    :      0.06s CPU      0.01s WALL (     150 calls)
     cegterg      :      4.61s CPU      0.48s WALL (      70 calls)

     Called by *egterg:
     cdiaghg      :      0.06s CPU      0.01s WALL (     286 calls)
     h_psi        :      4.73s CPU      0.48s WALL (     296 calls)
     g_psi        :      0.04s CPU      0.00s WALL (     216 calls)

     Called by h_psi:
     h_psi:calbec :      0.40s CPU      0.05s WALL (     296 calls)
     vloc_psi     :      4.18s CPU      0.40s WALL (     296 calls)
     add_vuspsi   :      0.12s CPU      0.02s WALL (     296 calls)

     General routines
     calbec       :      0.39s CPU      0.05s WALL (     296 calls)
     fft          :      0.14s CPU      0.04s WALL (      80 calls)
     ffts         :      0.06s CPU      0.00s WALL (       7 calls)
     fftw         :      4.05s CPU      0.39s WALL (    2300 calls)

     Parallel routines

     PWSCF        :      6.57s CPU      0.85s WALL


   This run was terminated on:  23:38: 4  19Dec2023            

=------------------------------------------------------------------------------=
   JOB DONE.
=------------------------------------------------------------------------------=
