
     Program PWSCF v.6.6 starts on 19Dec2023 at 23:37:45 

     This program is part of the open-source Quantum ESPRESSO suite
     for quantum simulation of materials; please cite
         "P. Giannozzi et al., J. Phys.:Condens. Matter 21 395502 (2009);
         "P. Giannozzi et al., J. Phys.:Condens. Matter 29 465901 (2017);
          URL http://www.quantum-espresso.org", 
     in publications or presentations arising from this work. More details at
     http://www.quantum-espresso.org/quote

     Parallel version (MPI), running on     1 processors

     MPI processes distributed on     1 nodes
     Fft bands division:     nmany     =       1
     Reading input from lattice-in_6.49.in

     Current dimensions of program PWSCF are:
     Max number of different atomic species (ntypx) = 10
     Max number of k-points (npk) =  40000
     Max angular momentum in pseudopotentials (lmaxx) =  3

     Subspace diagonalization in iterative solution of the eigenvalue problem:
     a serial algorithm will be used


     G-vector sticks info
     --------------------
     sticks:   dense  smooth     PW     G-vecs:    dense   smooth      PW
     Sum         433     433    139                 5985     5985    1067



     bravais-lattice index     =            2
     lattice parameter (alat)  =       6.4900  a.u.
     unit-cell volume          =      68.3399 (a.u.)^3
     number of atoms/cell      =            2
     number of atomic types    =            1
     number of electrons       =         8.00
     number of Kohn-Sham states=            4
     kinetic-energy cutoff     =      75.0000  Ry
     charge density cutoff     =     300.0000  Ry
     convergence threshold     =      1.0E-08
     mixing beta               =       0.7000
     number of iterations used =            8  plain     mixing
     Exchange-correlation= PBE
                           (   1   4   3   4   0   0   0)

     celldm(1)=   6.490000  celldm(2)=   0.000000  celldm(3)=   0.000000
     celldm(4)=   0.000000  celldm(5)=   0.000000  celldm(6)=   0.000000

     crystal axes: (cart. coord. in units of alat)
               a(1) = (  -0.500000   0.000000   0.500000 )  
               a(2) = (   0.000000   0.500000   0.500000 )  
               a(3) = (  -0.500000   0.500000   0.000000 )  

     reciprocal axes: (cart. coord. in units 2 pi/alat)
               b(1) = ( -1.000000 -1.000000  1.000000 )  
               b(2) = (  1.000000  1.000000  1.000000 )  
               b(3) = ( -1.000000  1.000000 -1.000000 )  


     PseudoPot. # 1 for C  read from file:
     ./C.UPF
     MD5 check sum: ead9220225bd72a2f9a48cc2a638047d
     Pseudo is Norm-conserving + core correction, Zval =  4.0
     Generated using ONCVPSP code by D. R. Hamann
     Using radial grid of 1248 points,  4 beta functions with: 
                l(1) =   0
                l(2) =   0
                l(3) =   1
                l(4) =   1

     atomic species   valence    mass     pseudopotential
        C              4.00    12.01070     C ( 1.00)

     48 Sym. Ops., with inversion, found (24 have fractional translation)



   Cartesian axes

     site n.     atom                  positions (alat units)
         1           C   tau(   1) = (   0.0000000   0.0000000   0.0000000  )
         2           C   tau(   2) = (  -0.2500000   0.2500000   0.2500000  )

     number of k points=    10
                       cart. coord. in units 2pi/alat
        k(    1) = (  -0.1250000   0.1250000   0.1250000), wk =   0.0625000
        k(    2) = (  -0.3750000   0.3750000  -0.1250000), wk =   0.1875000
        k(    3) = (   0.3750000  -0.3750000   0.6250000), wk =   0.1875000
        k(    4) = (   0.1250000  -0.1250000   0.3750000), wk =   0.1875000
        k(    5) = (  -0.1250000   0.6250000   0.1250000), wk =   0.1875000
        k(    6) = (   0.6250000  -0.1250000   0.8750000), wk =   0.3750000
        k(    7) = (   0.3750000   0.1250000   0.6250000), wk =   0.3750000
        k(    8) = (  -0.1250000  -0.8750000   0.1250000), wk =   0.1875000
        k(    9) = (  -0.3750000   0.3750000   0.3750000), wk =   0.0625000
        k(   10) = (   0.3750000  -0.3750000   1.1250000), wk =   0.1875000

     Dense  grid:     5985 G-vectors     FFT dimensions: (  32,  32,  32)

     Estimated max dynamical RAM per process >       6.01 MB

     Initial potential from superposition of free atoms

     starting charge    7.99991, renormalised to    8.00000
     Starting wfcs are    8 randomized atomic wfcs

     total cpu time spent up to now is        0.2 secs

     Self-consistent Calculation

     iteration #  1     ecut=    75.00 Ry     beta= 0.70
     Davidson diagonalization with overlap
     ethr =  1.00E-02,  avg # of iterations =  2.0

     total cpu time spent up to now is        0.3 secs

     total energy              =     -24.04858770 Ry
     estimated scf accuracy    <       0.13928007 Ry

     iteration #  2     ecut=    75.00 Ry     beta= 0.70
     Davidson diagonalization with overlap
     ethr =  1.74E-03,  avg # of iterations =  1.3

     total cpu time spent up to now is        0.4 secs

     total energy              =     -24.05671021 Ry
     estimated scf accuracy    <       0.00435744 Ry

     iteration #  3     ecut=    75.00 Ry     beta= 0.70
     Davidson diagonalization with overlap
     ethr =  5.45E-05,  avg # of iterations =  2.8

     total cpu time spent up to now is        0.5 secs

     total energy              =     -24.05842704 Ry
     estimated scf accuracy    <       0.00009751 Ry

     iteration #  4     ecut=    75.00 Ry     beta= 0.70
     Davidson diagonalization with overlap
     ethr =  1.22E-06,  avg # of iterations =  5.1

     total cpu time spent up to now is        0.6 secs

     total energy              =     -24.05852378 Ry
     estimated scf accuracy    <       0.00001697 Ry

     iteration #  5     ecut=    75.00 Ry     beta= 0.70
     Davidson diagonalization with overlap
     ethr =  2.12E-07,  avg # of iterations =  2.4

     total cpu time spent up to now is        0.6 secs

     total energy              =     -24.05852757 Ry
     estimated scf accuracy    <       0.00000081 Ry

     iteration #  6     ecut=    75.00 Ry     beta= 0.70
     Davidson diagonalization with overlap
     ethr =  1.02E-08,  avg # of iterations =  3.2

     total cpu time spent up to now is        0.7 secs

     total energy              =     -24.05852786 Ry
     estimated scf accuracy    <       0.00000002 Ry

     iteration #  7     ecut=    75.00 Ry     beta= 0.70
     Davidson diagonalization with overlap
     ethr =  2.85E-10,  avg # of iterations =  3.9

     total cpu time spent up to now is        0.8 secs

     End of self-consistent calculation

          k =-0.1250 0.1250 0.1250 (   743 PWs)   bands (ev):

    -7.1091  12.8645  14.7685  14.7685

          k =-0.3750 0.3750-0.1250 (   748 PWs)   bands (ev):

    -4.6567   7.0813  10.6937  13.4560

          k = 0.3750-0.3750 0.6250 (   753 PWs)   bands (ev):

    -1.2707   1.7813  10.9692  11.5642

          k = 0.1250-0.1250 0.3750 (   757 PWs)   bands (ev):

    -5.8744   9.9747  12.2670  13.3362

          k =-0.1250 0.6250 0.1250 (   751 PWs)   bands (ev):

    -3.4479   7.4544   9.7911  10.0689

          k = 0.6250-0.1250 0.8750 (   748 PWs)   bands (ev):

     0.9284   3.5386   6.1955   8.3876

          k = 0.3750 0.1250 0.6250 (   747 PWs)   bands (ev):

    -2.2880   4.8468   8.6362  10.9549

          k =-0.1250-0.8750 0.1250 (   747 PWs)   bands (ev):

     0.0403   4.1924   7.2903   8.8836

          k =-0.3750 0.3750 0.3750 (   763 PWs)   bands (ev):

    -3.4656   3.9029  12.6839  12.6839

          k = 0.3750-0.3750 1.1250 (   744 PWs)   bands (ev):

    -0.1873   2.8916   7.0287  10.8024

     highest occupied level (ev):    14.7685

!    total energy              =     -24.05852788 Ry
     estimated scf accuracy    <          2.6E-09 Ry

     The total energy is the sum of the following terms:
     one-electron contribution =       9.56501487 Ry
     hartree contribution      =       1.81854060 Ry
     xc contribution           =      -8.88159992 Ry
     ewald contribution        =     -26.56048342 Ry

     convergence has been achieved in   7 iterations

     Writing output data file ./tmp/diamond.save/

     init_run     :      0.81s CPU      0.14s WALL (       1 calls)
     electrons    :      5.95s CPU      0.62s WALL (       1 calls)

     Called by init_run:
     wfcinit      :      0.69s CPU      0.08s WALL (       1 calls)
     potinit      :      0.03s CPU      0.02s WALL (       1 calls)
     hinit0       :      0.08s CPU      0.04s WALL (       1 calls)

     Called by electrons:
     c_bands      :      4.59s CPU      0.45s WALL (       7 calls)
     sum_band     :      0.74s CPU      0.08s WALL (       7 calls)
     v_of_rho     :      0.56s CPU      0.09s WALL (       8 calls)
     mix_rho      :      0.07s CPU      0.01s WALL (       7 calls)

     Called by c_bands:
     init_us_2    :      0.18s CPU      0.01s WALL (     150 calls)
     cegterg      :      4.23s CPU      0.43s WALL (      70 calls)

     Called by *egterg:
     cdiaghg      :      0.10s CPU      0.01s WALL (     277 calls)
     h_psi        :      4.58s CPU      0.47s WALL (     287 calls)
     g_psi        :      0.04s CPU      0.00s WALL (     207 calls)

     Called by h_psi:
     h_psi:calbec :      0.53s CPU      0.05s WALL (     287 calls)
     vloc_psi     :      3.79s CPU      0.39s WALL (     287 calls)
     add_vuspsi   :      0.23s CPU      0.04s WALL (     287 calls)

     General routines
     calbec       :      0.52s CPU      0.05s WALL (     287 calls)
     fft          :      0.32s CPU      0.04s WALL (      80 calls)
     ffts         :      0.03s CPU      0.00s WALL (       7 calls)
     fftw         :      3.77s CPU      0.38s WALL (    2266 calls)

     Parallel routines

     PWSCF        :      6.89s CPU      0.84s WALL


   This run was terminated on:  23:37:46  19Dec2023            

=------------------------------------------------------------------------------=
   JOB DONE.
=------------------------------------------------------------------------------=
