
     Program PWSCF v.6.6 starts on  5Jan2024 at 15:14:34 

     This program is part of the open-source Quantum ESPRESSO suite
     for quantum simulation of materials; please cite
         "P. Giannozzi et al., J. Phys.:Condens. Matter 21 395502 (2009);
         "P. Giannozzi et al., J. Phys.:Condens. Matter 29 465901 (2017);
          URL http://www.quantum-espresso.org", 
     in publications or presentations arising from this work. More details at
     http://www.quantum-espresso.org/quote

     Parallel version (MPI), running on     1 processors

     MPI processes distributed on     1 nodes
     Fft bands division:     nmany     =       1
     Reading input from lattice-in_6.92.in

     Current dimensions of program PWSCF are:
     Max number of different atomic species (ntypx) = 10
     Max number of k-points (npk) =  40000
     Max angular momentum in pseudopotentials (lmaxx) =  3

     Subspace diagonalization in iterative solution of the eigenvalue problem:
     a serial algorithm will be used


     G-vector sticks info
     --------------------
     sticks:   dense  smooth     PW     G-vecs:    dense   smooth      PW
     Sum         499     499    163                 7343     7343    1363



     bravais-lattice index     =            2
     lattice parameter (alat)  =       6.9200  a.u.
     unit-cell volume          =      82.8435 (a.u.)^3
     number of atoms/cell      =            2
     number of atomic types    =            1
     number of electrons       =         8.00
     number of Kohn-Sham states=            4
     kinetic-energy cutoff     =      75.0000  Ry
     charge density cutoff     =     300.0000  Ry
     convergence threshold     =      1.0E-08
     mixing beta               =       0.7000
     number of iterations used =            8  plain     mixing
     Exchange-correlation= PBE
                           (   1   4   3   4   0   0   0)

     celldm(1)=   6.920000  celldm(2)=   0.000000  celldm(3)=   0.000000
     celldm(4)=   0.000000  celldm(5)=   0.000000  celldm(6)=   0.000000

     crystal axes: (cart. coord. in units of alat)
               a(1) = (  -0.500000   0.000000   0.500000 )  
               a(2) = (   0.000000   0.500000   0.500000 )  
               a(3) = (  -0.500000   0.500000   0.000000 )  

     reciprocal axes: (cart. coord. in units 2 pi/alat)
               b(1) = ( -1.000000 -1.000000  1.000000 )  
               b(2) = (  1.000000  1.000000  1.000000 )  
               b(3) = ( -1.000000  1.000000 -1.000000 )  


     PseudoPot. # 1 for C  read from file:
     ./C.UPF
     MD5 check sum: ead9220225bd72a2f9a48cc2a638047d
     Pseudo is Norm-conserving + core correction, Zval =  4.0
     Generated using ONCVPSP code by D. R. Hamann
     Using radial grid of 1248 points,  4 beta functions with: 
                l(1) =   0
                l(2) =   0
                l(3) =   1
                l(4) =   1

     atomic species   valence    mass     pseudopotential
        C              4.00    12.01070     C ( 1.00)

     48 Sym. Ops., with inversion, found (24 have fractional translation)



   Cartesian axes

     site n.     atom                  positions (alat units)
         1           C   tau(   1) = (   0.0000000   0.0000000   0.0000000  )
         2           C   tau(   2) = (  -0.2500000   0.2500000   0.2500000  )

     number of k points=    10
                       cart. coord. in units 2pi/alat
        k(    1) = (  -0.1250000   0.1250000   0.1250000), wk =   0.0625000
        k(    2) = (  -0.3750000   0.3750000  -0.1250000), wk =   0.1875000
        k(    3) = (   0.3750000  -0.3750000   0.6250000), wk =   0.1875000
        k(    4) = (   0.1250000  -0.1250000   0.3750000), wk =   0.1875000
        k(    5) = (  -0.1250000   0.6250000   0.1250000), wk =   0.1875000
        k(    6) = (   0.6250000  -0.1250000   0.8750000), wk =   0.3750000
        k(    7) = (   0.3750000   0.1250000   0.6250000), wk =   0.3750000
        k(    8) = (  -0.1250000  -0.8750000   0.1250000), wk =   0.1875000
        k(    9) = (  -0.3750000   0.3750000   0.3750000), wk =   0.0625000
        k(   10) = (   0.3750000  -0.3750000   1.1250000), wk =   0.1875000

     Dense  grid:     7343 G-vectors     FFT dimensions: (  32,  32,  32)

     Estimated max dynamical RAM per process >       6.76 MB

     Initial potential from superposition of free atoms

     starting charge    7.99991, renormalised to    8.00000
     Starting wfcs are    8 randomized atomic wfcs

     total cpu time spent up to now is        0.2 secs

     Self-consistent Calculation

     iteration #  1     ecut=    75.00 Ry     beta= 0.70
     Davidson diagonalization with overlap
     ethr =  1.00E-02,  avg # of iterations =  2.0

     total cpu time spent up to now is        0.3 secs

     total energy              =     -24.06273793 Ry
     estimated scf accuracy    <       0.08920070 Ry

     iteration #  2     ecut=    75.00 Ry     beta= 0.70
     Davidson diagonalization with overlap
     ethr =  1.12E-03,  avg # of iterations =  1.4

     total cpu time spent up to now is        0.4 secs

     total energy              =     -24.06808899 Ry
     estimated scf accuracy    <       0.00338286 Ry

     iteration #  3     ecut=    75.00 Ry     beta= 0.70
     Davidson diagonalization with overlap
     ethr =  4.23E-05,  avg # of iterations =  2.8

     total cpu time spent up to now is        0.5 secs

     total energy              =     -24.06937886 Ry
     estimated scf accuracy    <       0.00007989 Ry

     iteration #  4     ecut=    75.00 Ry     beta= 0.70
     Davidson diagonalization with overlap
     ethr =  9.99E-07,  avg # of iterations =  5.2

     total cpu time spent up to now is        0.9 secs

     total energy              =     -24.06948952 Ry
     estimated scf accuracy    <       0.00001223 Ry

     iteration #  5     ecut=    75.00 Ry     beta= 0.70
     Davidson diagonalization with overlap
     ethr =  1.53E-07,  avg # of iterations =  2.6

     total cpu time spent up to now is        1.1 secs

     total energy              =     -24.06949279 Ry
     estimated scf accuracy    <       0.00000029 Ry

     iteration #  6     ecut=    75.00 Ry     beta= 0.70
     Davidson diagonalization with overlap
     ethr =  3.59E-09,  avg # of iterations =  4.2

     total cpu time spent up to now is        1.2 secs

     total energy              =     -24.06949304 Ry
     estimated scf accuracy    <       0.00000001 Ry

     iteration #  7     ecut=    75.00 Ry     beta= 0.70
     Davidson diagonalization with overlap
     ethr =  1.64E-10,  avg # of iterations =  3.7

     total cpu time spent up to now is        1.4 secs

     End of self-consistent calculation

          k =-0.1250 0.1250 0.1250 (   914 PWs)   bands (ev):

    -8.0707   9.6975  11.3748  11.3748

          k =-0.3750 0.3750-0.1250 (   907 PWs)   bands (ev):

    -5.9339   4.6158   7.8883  10.2597

          k = 0.3750-0.3750 0.6250 (   909 PWs)   bands (ev):

    -3.1508   0.1558   8.0596   8.7000

          k = 0.1250-0.1250 0.3750 (   912 PWs)   bands (ev):

    -6.9906   7.1517   9.3221  10.0296

          k =-0.1250 0.6250 0.1250 (   906 PWs)   bands (ev):

    -4.8776   4.7635   7.0716   7.4784

          k = 0.6250-0.1250 0.8750 (   911 PWs)   bands (ev):

    -1.2198   1.2807   4.1452   6.1035

          k = 0.3750 0.1250 0.6250 (   904 PWs)   bands (ev):

    -3.8996   2.6249   6.0691   8.1828

          k =-0.1250-0.8750 0.1250 (   913 PWs)   bands (ev):

    -1.8661   1.6937   5.1741   6.4768

          k =-0.3750 0.3750 0.3750 (   911 PWs)   bands (ev):

    -4.9232   1.8859   9.6201   9.6201

          k = 0.3750-0.3750 1.1250 (   909 PWs)   bands (ev):

    -2.2050   1.0151   4.7032   8.0725

     highest occupied level (ev):    11.3748

!    total energy              =     -24.06949305 Ry
     estimated scf accuracy    <          1.8E-09 Ry

     The total energy is the sum of the following terms:
     one-electron contribution =       7.37294075 Ry
     hartree contribution      =       2.01499552 Ry
     xc contribution           =      -8.54738056 Ry
     ewald contribution        =     -24.91004876 Ry

     convergence has been achieved in   7 iterations

     Writing output data file ./tmp/diamond.save/

     init_run     :      0.64s CPU      0.14s WALL (       1 calls)
     electrons    :      8.76s CPU      1.17s WALL (       1 calls)

     Called by init_run:
     wfcinit      :      0.51s CPU      0.06s WALL (       1 calls)
     potinit      :      0.02s CPU      0.01s WALL (       1 calls)
     hinit0       :      0.10s CPU      0.06s WALL (       1 calls)

     Called by electrons:
     c_bands      :      8.05s CPU      1.01s WALL (       7 calls)
     sum_band     :      0.57s CPU      0.09s WALL (       7 calls)
     v_of_rho     :      0.13s CPU      0.07s WALL (       8 calls)
     mix_rho      :      0.01s CPU      0.01s WALL (       7 calls)

     Called by c_bands:
     init_us_2    :      0.12s CPU      0.02s WALL (     150 calls)
     cegterg      :      7.78s CPU      0.98s WALL (      70 calls)

     Called by *egterg:
     cdiaghg      :      0.10s CPU      0.01s WALL (     289 calls)
     h_psi        :      7.83s CPU      0.99s WALL (     299 calls)
     g_psi        :      0.03s CPU      0.00s WALL (     219 calls)

     Called by h_psi:
     h_psi:calbec :      2.40s CPU      0.29s WALL (     299 calls)
     vloc_psi     :      3.46s CPU      0.43s WALL (     299 calls)
     add_vuspsi   :      1.96s CPU      0.26s WALL (     299 calls)

     General routines
     calbec       :      2.39s CPU      0.29s WALL (     299 calls)
     fft          :      0.06s CPU      0.03s WALL (      80 calls)
     ffts         :      0.01s CPU      0.00s WALL (       7 calls)
     fftw         :      3.37s CPU      0.43s WALL (    2316 calls)

     Parallel routines

     PWSCF        :      9.61s CPU      1.38s WALL


   This run was terminated on:  15:14:35   5Jan2024            

=------------------------------------------------------------------------------=
   JOB DONE.
=------------------------------------------------------------------------------=
