
     Program PWSCF v.6.6 starts on  5Jan2024 at 15:13:33 

     This program is part of the open-source Quantum ESPRESSO suite
     for quantum simulation of materials; please cite
         "P. Giannozzi et al., J. Phys.:Condens. Matter 21 395502 (2009);
         "P. Giannozzi et al., J. Phys.:Condens. Matter 29 465901 (2017);
          URL http://www.quantum-espresso.org", 
     in publications or presentations arising from this work. More details at
     http://www.quantum-espresso.org/quote

     Parallel version (MPI), running on     1 processors

     MPI processes distributed on     1 nodes
     Fft bands division:     nmany     =       1
     Reading input from lattice-in_6.52.in

     Current dimensions of program PWSCF are:
     Max number of different atomic species (ntypx) = 10
     Max number of k-points (npk) =  40000
     Max angular momentum in pseudopotentials (lmaxx) =  3

     Subspace diagonalization in iterative solution of the eigenvalue problem:
     a serial algorithm will be used


     G-vector sticks info
     --------------------
     sticks:   dense  smooth     PW     G-vecs:    dense   smooth      PW
     Sum         439     439    151                 6081     6081    1139



     bravais-lattice index     =            2
     lattice parameter (alat)  =       6.5200  a.u.
     unit-cell volume          =      69.2920 (a.u.)^3
     number of atoms/cell      =            2
     number of atomic types    =            1
     number of electrons       =         8.00
     number of Kohn-Sham states=            4
     kinetic-energy cutoff     =      75.0000  Ry
     charge density cutoff     =     300.0000  Ry
     convergence threshold     =      1.0E-08
     mixing beta               =       0.7000
     number of iterations used =            8  plain     mixing
     Exchange-correlation= PBE
                           (   1   4   3   4   0   0   0)

     celldm(1)=   6.520000  celldm(2)=   0.000000  celldm(3)=   0.000000
     celldm(4)=   0.000000  celldm(5)=   0.000000  celldm(6)=   0.000000

     crystal axes: (cart. coord. in units of alat)
               a(1) = (  -0.500000   0.000000   0.500000 )  
               a(2) = (   0.000000   0.500000   0.500000 )  
               a(3) = (  -0.500000   0.500000   0.000000 )  

     reciprocal axes: (cart. coord. in units 2 pi/alat)
               b(1) = ( -1.000000 -1.000000  1.000000 )  
               b(2) = (  1.000000  1.000000  1.000000 )  
               b(3) = ( -1.000000  1.000000 -1.000000 )  


     PseudoPot. # 1 for C  read from file:
     ./C.UPF
     MD5 check sum: ead9220225bd72a2f9a48cc2a638047d
     Pseudo is Norm-conserving + core correction, Zval =  4.0
     Generated using ONCVPSP code by D. R. Hamann
     Using radial grid of 1248 points,  4 beta functions with: 
                l(1) =   0
                l(2) =   0
                l(3) =   1
                l(4) =   1

     atomic species   valence    mass     pseudopotential
        C              4.00    12.01070     C ( 1.00)

     48 Sym. Ops., with inversion, found (24 have fractional translation)



   Cartesian axes

     site n.     atom                  positions (alat units)
         1           C   tau(   1) = (   0.0000000   0.0000000   0.0000000  )
         2           C   tau(   2) = (  -0.2500000   0.2500000   0.2500000  )

     number of k points=    10
                       cart. coord. in units 2pi/alat
        k(    1) = (  -0.1250000   0.1250000   0.1250000), wk =   0.0625000
        k(    2) = (  -0.3750000   0.3750000  -0.1250000), wk =   0.1875000
        k(    3) = (   0.3750000  -0.3750000   0.6250000), wk =   0.1875000
        k(    4) = (   0.1250000  -0.1250000   0.3750000), wk =   0.1875000
        k(    5) = (  -0.1250000   0.6250000   0.1250000), wk =   0.1875000
        k(    6) = (   0.6250000  -0.1250000   0.8750000), wk =   0.3750000
        k(    7) = (   0.3750000   0.1250000   0.6250000), wk =   0.3750000
        k(    8) = (  -0.1250000  -0.8750000   0.1250000), wk =   0.1875000
        k(    9) = (  -0.3750000   0.3750000   0.3750000), wk =   0.0625000
        k(   10) = (   0.3750000  -0.3750000   1.1250000), wk =   0.1875000

     Dense  grid:     6081 G-vectors     FFT dimensions: (  32,  32,  32)

     Estimated max dynamical RAM per process >       6.06 MB

     Initial potential from superposition of free atoms

     starting charge    7.99991, renormalised to    8.00000
     Starting wfcs are    8 randomized atomic wfcs

     total cpu time spent up to now is        0.2 secs

     Self-consistent Calculation

     iteration #  1     ecut=    75.00 Ry     beta= 0.70
     Davidson diagonalization with overlap
     ethr =  1.00E-02,  avg # of iterations =  2.0

     total cpu time spent up to now is        0.3 secs

     total energy              =     -24.05252439 Ry
     estimated scf accuracy    <       0.13538155 Ry

     iteration #  2     ecut=    75.00 Ry     beta= 0.70
     Davidson diagonalization with overlap
     ethr =  1.69E-03,  avg # of iterations =  1.3

     total cpu time spent up to now is        0.4 secs

     total energy              =     -24.06053708 Ry
     estimated scf accuracy    <       0.00424827 Ry

     iteration #  3     ecut=    75.00 Ry     beta= 0.70
     Davidson diagonalization with overlap
     ethr =  5.31E-05,  avg # of iterations =  3.0

     total cpu time spent up to now is        0.7 secs

     total energy              =     -24.06225455 Ry
     estimated scf accuracy    <       0.00009575 Ry

     iteration #  4     ecut=    75.00 Ry     beta= 0.70
     Davidson diagonalization with overlap
     ethr =  1.20E-06,  avg # of iterations =  4.8

     total cpu time spent up to now is        0.9 secs

     total energy              =     -24.06235254 Ry
     estimated scf accuracy    <       0.00001601 Ry

     iteration #  5     ecut=    75.00 Ry     beta= 0.70
     Davidson diagonalization with overlap
     ethr =  2.00E-07,  avg # of iterations =  2.2

     total cpu time spent up to now is        1.1 secs

     total energy              =     -24.06235623 Ry
     estimated scf accuracy    <       0.00000079 Ry

     iteration #  6     ecut=    75.00 Ry     beta= 0.70
     Davidson diagonalization with overlap
     ethr =  9.90E-09,  avg # of iterations =  3.7

     total cpu time spent up to now is        1.2 secs

     total energy              =     -24.06235657 Ry
     estimated scf accuracy    <       0.00000001 Ry

     iteration #  7     ecut=    75.00 Ry     beta= 0.70
     Davidson diagonalization with overlap
     ethr =  1.44E-10,  avg # of iterations =  4.3

     total cpu time spent up to now is        1.3 secs

     End of self-consistent calculation

          k =-0.1250 0.1250 0.1250 (   752 PWs)   bands (ev):

    -7.1845  12.6215  14.5077  14.5077

          k =-0.3750 0.3750-0.1250 (   757 PWs)   bands (ev):

    -4.7553   6.8926  10.4774  13.2100

          k = 0.3750-0.3750 0.6250 (   760 PWs)   bands (ev):

    -1.4145   1.6556  10.7451  11.3437

          k = 0.1250-0.1250 0.3750 (   766 PWs)   bands (ev):

    -5.9612   9.7594  12.0403  13.0813

          k =-0.1250 0.6250 0.1250 (   762 PWs)   bands (ev):

    -3.5580   7.2510   9.5792   9.8694

          k = 0.6250-0.1250 0.8750 (   754 PWs)   bands (ev):

     0.7639   3.3685   6.0340   8.2118

          k = 0.3750 0.1250 0.6250 (   759 PWs)   bands (ev):

    -2.4113   4.6772   8.4374  10.7410

          k =-0.1250-0.8750 0.1250 (   759 PWs)   bands (ev):

    -0.1054   4.0010   7.1271   8.6982

          k =-0.3750 0.3750 0.3750 (   763 PWs)   bands (ev):

    -3.5773   3.7471  12.4481  12.4481

          k = 0.3750-0.3750 1.1250 (   759 PWs)   bands (ev):

    -0.3417   2.7491   6.8473  10.5919

     highest occupied level (ev):    14.5077

!    total energy              =     -24.06235658 Ry
     estimated scf accuracy    <          2.5E-09 Ry

     The total energy is the sum of the following terms:
     one-electron contribution =       9.40028905 Ry
     hartree contribution      =       1.83195707 Ry
     xc contribution           =      -8.85633010 Ry
     ewald contribution        =     -26.43827261 Ry

     convergence has been achieved in   7 iterations

     Writing output data file ./tmp/diamond.save/

     init_run     :      0.49s CPU      0.10s WALL (       1 calls)
     electrons    :      8.68s CPU      1.19s WALL (       1 calls)

     Called by init_run:
     wfcinit      :      0.41s CPU      0.06s WALL (       1 calls)
     potinit      :      0.03s CPU      0.02s WALL (       1 calls)
     hinit0       :      0.05s CPU      0.03s WALL (       1 calls)

     Called by electrons:
     c_bands      :      8.03s CPU      1.04s WALL (       7 calls)
     sum_band     :      0.52s CPU      0.08s WALL (       7 calls)
     v_of_rho     :      0.13s CPU      0.07s WALL (       8 calls)
     mix_rho      :      0.01s CPU      0.01s WALL (       7 calls)

     Called by c_bands:
     init_us_2    :      0.13s CPU      0.01s WALL (     150 calls)
     cegterg      :      7.84s CPU      1.02s WALL (      70 calls)

     Called by *egterg:
     cdiaghg      :      0.10s CPU      0.01s WALL (     283 calls)
     h_psi        :      7.82s CPU      1.03s WALL (     293 calls)
     g_psi        :      0.03s CPU      0.00s WALL (     213 calls)

     Called by h_psi:
     h_psi:calbec :      2.75s CPU      0.34s WALL (     293 calls)
     vloc_psi     :      2.86s CPU      0.42s WALL (     293 calls)
     add_vuspsi   :      2.19s CPU      0.27s WALL (     293 calls)

     General routines
     calbec       :      2.74s CPU      0.34s WALL (     293 calls)
     fft          :      0.07s CPU      0.03s WALL (      80 calls)
     ffts         :      0.01s CPU      0.00s WALL (       7 calls)
     fftw         :      2.83s CPU      0.40s WALL (    2296 calls)

     Parallel routines

     PWSCF        :      9.28s CPU      1.36s WALL


   This run was terminated on:  15:13:34   5Jan2024            

=------------------------------------------------------------------------------=
   JOB DONE.
=------------------------------------------------------------------------------=
