
     Program PWSCF v.6.6 starts on  5Jan2024 at 22:39:29 

     This program is part of the open-source Quantum ESPRESSO suite
     for quantum simulation of materials; please cite
         "P. Giannozzi et al., J. Phys.:Condens. Matter 21 395502 (2009);
         "P. Giannozzi et al., J. Phys.:Condens. Matter 29 465901 (2017);
          URL http://www.quantum-espresso.org", 
     in publications or presentations arising from this work. More details at
     http://www.quantum-espresso.org/quote

     Parallel version (MPI), running on     1 processors

     MPI processes distributed on     1 nodes
     Fft bands division:     nmany     =       1
     Waiting for input...
     Reading input from standard input

     Current dimensions of program PWSCF are:
     Max number of different atomic species (ntypx) = 10
     Max number of k-points (npk) =  40000
     Max angular momentum in pseudopotentials (lmaxx) =  3

     gamma-point specific algorithms are used

     Subspace diagonalization in iterative solution of the eigenvalue problem:
     a serial algorithm will be used


     G-vector sticks info
     --------------------
     sticks:   dense  smooth     PW     G-vecs:    dense   smooth      PW
     Sum       16519   16519   4117              1403419  1403419  175215



     bravais-lattice index     =            2
     lattice parameter (alat)  =      40.0000  a.u.
     unit-cell volume          =   16000.0000 (a.u.)^3
     number of atoms/cell      =            5
     number of atomic types    =            2
     number of electrons       =         8.00
     number of Kohn-Sham states=            4
     kinetic-energy cutoff     =      75.0000  Ry
     charge density cutoff     =     300.0000  Ry
     convergence threshold     =      1.0E-09
     mixing beta               =       0.7000
     number of iterations used =            8  plain     mixing
     Exchange-correlation= PBE
                           (   1   4   3   4   0   0   0)
     nstep                     =           50


     celldm(1)=  40.000000  celldm(2)=   0.000000  celldm(3)=   0.000000
     celldm(4)=   0.000000  celldm(5)=   0.000000  celldm(6)=   0.000000

     crystal axes: (cart. coord. in units of alat)
               a(1) = (  -0.500000   0.000000   0.500000 )  
               a(2) = (   0.000000   0.500000   0.500000 )  
               a(3) = (  -0.500000   0.500000   0.000000 )  

     reciprocal axes: (cart. coord. in units 2 pi/alat)
               b(1) = ( -1.000000 -1.000000  1.000000 )  
               b(2) = (  1.000000  1.000000  1.000000 )  
               b(3) = ( -1.000000  1.000000 -1.000000 )  


     PseudoPot. # 1 for C  read from file:
     ./C.UPF
     MD5 check sum: ead9220225bd72a2f9a48cc2a638047d
     Pseudo is Norm-conserving + core correction, Zval =  4.0
     Generated using ONCVPSP code by D. R. Hamann
     Using radial grid of 1248 points,  4 beta functions with: 
                l(1) =   0
                l(2) =   0
                l(3) =   1
                l(4) =   1

     PseudoPot. # 2 for H  read from file:
     ./H.UPF
     MD5 check sum: d0574daf555580c6daec7a4217117926
     Pseudo is Norm-conserving, Zval =  1.0
     Generated using ONCVPSP code by D. R. Hamann
     Using radial grid of 1166 points,  3 beta functions with: 
                l(1) =   0
                l(2) =   0
                l(3) =   1

     atomic species   valence    mass     pseudopotential
        C              4.00    12.01070     C ( 1.00)
        H              1.00     1.00784     H ( 1.00)

      2 Sym. Ops. (no inversion) found



   Cartesian axes

     site n.     atom                  positions (alat units)
         1           C   tau(   1) = (   0.0000000   0.0000000   0.0000000  )
         2           H   tau(   2) = (   0.0000000   0.0000000   0.0514950  )
         3           H   tau(   3) = (   0.0000000  -0.0485414  -0.0171894  )
         4           H   tau(   4) = (   0.0420380   0.0242707  -0.0171894  )
         5           H   tau(   5) = (  -0.0420380   0.0242707  -0.0171894  )

     number of k points=     1
                       cart. coord. in units 2pi/alat
        k(    1) = (   0.0000000   0.0000000   0.0000000), wk =   2.0000000

     Dense  grid:   701710 G-vectors     FFT dimensions: ( 160, 160, 160)

     Estimated max dynamical RAM per process >     659.50 MB

     Initial potential from superposition of free atoms

     starting charge    7.99992, renormalised to    8.00000

     negative rho (up, down):  2.395E-04 0.000E+00
     Starting wfcs are    8 randomized atomic wfcs

     total cpu time spent up to now is        1.9 secs

     Self-consistent Calculation

     iteration #  1     ecut=    75.00 Ry     beta= 0.70
     Davidson diagonalization with overlap
     ethr =  1.00E-02,  avg # of iterations =  2.0

     negative rho (up, down):  4.486E-05 0.000E+00

     total cpu time spent up to now is        3.7 secs

     total energy              =     -16.59676988 Ry
     estimated scf accuracy    <       0.68251755 Ry

     iteration #  2     ecut=    75.00 Ry     beta= 0.70
     Davidson diagonalization with overlap
     ethr =  8.53E-03,  avg # of iterations =  2.0

     negative rho (up, down):  1.779E-05 0.000E+00

     total cpu time spent up to now is        5.9 secs

     total energy              =     -16.78507546 Ry
     estimated scf accuracy    <       0.18951143 Ry

     iteration #  3     ecut=    75.00 Ry     beta= 0.70
     Davidson diagonalization with overlap
     ethr =  2.37E-03,  avg # of iterations =  2.0

     negative rho (up, down):  5.535E-06 0.000E+00

     total cpu time spent up to now is        8.0 secs

     total energy              =     -16.80474845 Ry
     estimated scf accuracy    <       0.00805097 Ry

     iteration #  4     ecut=    75.00 Ry     beta= 0.70
     Davidson diagonalization with overlap
     ethr =  1.01E-04,  avg # of iterations =  3.0

     negative rho (up, down):  4.463E-07 0.000E+00

     total cpu time spent up to now is       10.6 secs

     total energy              =     -16.80683183 Ry
     estimated scf accuracy    <       0.01133885 Ry

     iteration #  5     ecut=    75.00 Ry     beta= 0.70
     Davidson diagonalization with overlap
     ethr =  1.01E-04,  avg # of iterations =  2.0

     negative rho (up, down):  5.011E-06 0.000E+00

     total cpu time spent up to now is       12.4 secs

     total energy              =     -16.80834626 Ry
     estimated scf accuracy    <       0.00013495 Ry

     iteration #  6     ecut=    75.00 Ry     beta= 0.70
     Davidson diagonalization with overlap
     ethr =  1.69E-06,  avg # of iterations =  3.0

     negative rho (up, down):  2.419E-06 0.000E+00

     total cpu time spent up to now is       14.8 secs

     total energy              =     -16.80840604 Ry
     estimated scf accuracy    <       0.00145287 Ry

     iteration #  7     ecut=    75.00 Ry     beta= 0.70
     Davidson diagonalization with overlap
     ethr =  1.69E-06,  avg # of iterations =  2.0

     negative rho (up, down):  1.108E-06 0.000E+00

     total cpu time spent up to now is       16.5 secs

     total energy              =     -16.80840710 Ry
     estimated scf accuracy    <       0.00026699 Ry

     iteration #  8     ecut=    75.00 Ry     beta= 0.70
     Davidson diagonalization with overlap
     ethr =  1.69E-06,  avg # of iterations =  2.0

     total cpu time spent up to now is       18.5 secs

     total energy              =     -16.80841575 Ry
     estimated scf accuracy    <       0.00004168 Ry

     iteration #  9     ecut=    75.00 Ry     beta= 0.70
     Davidson diagonalization with overlap
     ethr =  5.21E-07,  avg # of iterations =  2.0

     total cpu time spent up to now is       20.5 secs

     total energy              =     -16.80842419 Ry
     estimated scf accuracy    <       0.00000024 Ry

     iteration # 10     ecut=    75.00 Ry     beta= 0.70
     Davidson diagonalization with overlap
     ethr =  2.96E-09,  avg # of iterations =  3.0

     total cpu time spent up to now is       23.4 secs

     total energy              =     -16.80842448 Ry
     estimated scf accuracy    <       0.00000033 Ry

     iteration # 11     ecut=    75.00 Ry     beta= 0.70
     Davidson diagonalization with overlap
     ethr =  2.96E-09,  avg # of iterations =  1.0

     total cpu time spent up to now is       25.1 secs

     total energy              =     -16.80842441 Ry
     estimated scf accuracy    <       0.00000013 Ry

     iteration # 12     ecut=    75.00 Ry     beta= 0.70
     Davidson diagonalization with overlap
     ethr =  1.60E-09,  avg # of iterations =  2.0

     total cpu time spent up to now is       27.0 secs

     total energy              =     -16.80842446 Ry
     estimated scf accuracy    <       0.00000007 Ry

     iteration # 13     ecut=    75.00 Ry     beta= 0.70
     Davidson diagonalization with overlap
     ethr =  8.52E-10,  avg # of iterations =  1.0

     total cpu time spent up to now is       28.8 secs

     total energy              =     -16.80842446 Ry
     estimated scf accuracy    <       0.00000001 Ry

     iteration # 14     ecut=    75.00 Ry     beta= 0.70
     Davidson diagonalization with overlap
     ethr =  1.33E-10,  avg # of iterations =  2.0

     total cpu time spent up to now is       30.6 secs

     total energy              =     -16.80842447 Ry
     estimated scf accuracy    <          1.0E-09 Ry

     iteration # 15     ecut=    75.00 Ry     beta= 0.70
     Davidson diagonalization with overlap
     ethr =  1.31E-11,  avg # of iterations =  2.0

     total cpu time spent up to now is       32.9 secs

     End of self-consistent calculation

          k = 0.0000 0.0000 0.0000 ( 87608 PWs)   bands (ev):

   -16.9992  -9.3849  -9.3813  -9.3813

     highest occupied level (ev):    -9.3813

!    total energy              =     -16.80842447 Ry
     estimated scf accuracy    <          6.4E-11 Ry

     The total energy is the sum of the following terms:
     one-electron contribution =     -44.65962292 Ry
     hartree contribution      =      23.19252745 Ry
     xc contribution           =      -7.14411287 Ry
     ewald contribution        =      11.80278388 Ry

     convergence has been achieved in  15 iterations

     Forces acting on atoms (cartesian axes, Ry/au):

     atom    1 type  1   force =     0.00000000   -0.00000266   -0.00023105
     atom    2 type  2   force =     0.00000000   -0.00000000    0.00524401
     atom    3 type  2   force =     0.00000000   -0.00504675   -0.00167163
     atom    4 type  2   force =     0.00437104    0.00252471   -0.00167067
     atom    5 type  2   force =    -0.00437104    0.00252471   -0.00167067

     Total force =     0.010600     Total SCF correction =     0.000004

     BFGS Geometry Optimization

     number of scf cycles    =   1
     number of bfgs steps    =   0

     energy   new            =     -16.8084244671 Ry

     new trust radius        =       0.0053170744 bohr
     new conv_thr            =       0.0000000010 Ry


ATOMIC_POSITIONS (angstrom)
C            -0.0000000000       -0.0000014101       -0.0001222650
H             0.0000000000       -0.0000000002        1.0927750101
H             0.0000000000       -1.0301498563       -0.3647340681
H             0.8921361654        0.5150756283       -0.3647335585
H            -0.8921361654        0.5150756283       -0.3647335585



     Writing output data file ./tmp/graphene.save/
     NEW-OLD atomic charge density approx. for the potential

     negative rho (up, down):  6.074E-06 0.000E+00

     total cpu time spent up to now is       35.0 secs

     Self-consistent Calculation

     iteration #  1     ecut=    75.00 Ry     beta= 0.70
     Davidson diagonalization with overlap
     ethr =  1.00E-06,  avg # of iterations =  3.0

     negative rho (up, down):  1.524E-06 0.000E+00

     total cpu time spent up to now is       36.8 secs

     total energy              =     -16.80848862 Ry
     estimated scf accuracy    <       0.00003421 Ry

     iteration #  2     ecut=    75.00 Ry     beta= 0.70
     Davidson diagonalization with overlap
     ethr =  4.28E-07,  avg # of iterations =  2.0

     negative rho (up, down):  6.600E-07 0.000E+00

     total cpu time spent up to now is       38.5 secs

     total energy              =     -16.80849770 Ry
     estimated scf accuracy    <       0.00000619 Ry

     iteration #  3     ecut=    75.00 Ry     beta= 0.70
     Davidson diagonalization with overlap
     ethr =  7.73E-08,  avg # of iterations =  2.0

     total cpu time spent up to now is       40.5 secs

     total energy              =     -16.80849844 Ry
     estimated scf accuracy    <       0.00000014 Ry

     iteration #  4     ecut=    75.00 Ry     beta= 0.70
     Davidson diagonalization with overlap
     ethr =  1.72E-09,  avg # of iterations =  3.0

     total cpu time spent up to now is       42.6 secs

     total energy              =     -16.80849854 Ry
     estimated scf accuracy    <       0.00000021 Ry

     iteration #  5     ecut=    75.00 Ry     beta= 0.70
     Davidson diagonalization with overlap
     ethr =  1.72E-09,  avg # of iterations =  2.0

     total cpu time spent up to now is       44.9 secs

     total energy              =     -16.80849853 Ry
     estimated scf accuracy    <       0.00000003 Ry

     iteration #  6     ecut=    75.00 Ry     beta= 0.70
     Davidson diagonalization with overlap
     ethr =  4.20E-10,  avg # of iterations =  3.0

     total cpu time spent up to now is       47.3 secs

     total energy              =     -16.80849853 Ry
     estimated scf accuracy    <       0.00000014 Ry

     iteration #  7     ecut=    75.00 Ry     beta= 0.70
     Davidson diagonalization with overlap
     ethr =  4.20E-10,  avg # of iterations =  2.0

     total cpu time spent up to now is       49.3 secs

     total energy              =     -16.80849854 Ry
     estimated scf accuracy    <          9.5E-09 Ry

     iteration #  8     ecut=    75.00 Ry     beta= 0.70
     Davidson diagonalization with overlap
     ethr =  1.19E-10,  avg # of iterations =  2.0

     total cpu time spent up to now is       51.2 secs

     End of self-consistent calculation

          k = 0.0000 0.0000 0.0000 ( 87608 PWs)   bands (ev):

   -16.9778  -9.3730  -9.3710  -9.3709

     highest occupied level (ev):    -9.3709

!    total energy              =     -16.80849854 Ry
     estimated scf accuracy    <          8.8E-10 Ry

     The total energy is the sum of the following terms:
     one-electron contribution =     -44.57581928 Ry
     hartree contribution      =      23.14958093 Ry
     xc contribution           =      -7.13622056 Ry
     ewald contribution        =      11.75396036 Ry

     convergence has been achieved in   8 iterations

     Forces acting on atoms (cartesian axes, Ry/au):

     atom    1 type  1   force =     0.00000000    0.00000127   -0.00001197
     atom    2 type  2   force =     0.00000000   -0.00000047    0.00152562
     atom    3 type  2   force =     0.00000000   -0.00166116   -0.00050565
     atom    4 type  2   force =     0.00143695    0.00083018   -0.00050400
     atom    5 type  2   force =    -0.00143695    0.00083018   -0.00050400

     Total force =     0.003370     Total SCF correction =     0.000016

     number of scf cycles    =   2
     number of bfgs steps    =   1

     energy   old            =     -16.8084244671 Ry
     energy   new            =     -16.8084985441 Ry

     CASE: energy  _new < energy  _old

     new trust radius        =       0.0025476230 bohr
     new conv_thr            =            1.0E-11 Ry


ATOMIC_POSITIONS (angstrom)
C            -0.0000000000       -0.0000004262       -0.0001316284
H             0.0000000000       -0.0000003685        1.0939597011
H             0.0000000000       -1.0314395602       -0.3651266953
H             0.8932518000        0.5157201725       -0.3651249087
H            -0.8932518000        0.5157201725       -0.3651249087



     Writing output data file ./tmp/graphene.save/
     NEW-OLD atomic charge density approx. for the potential

     negative rho (up, down):  2.556E-06 0.000E+00

     total cpu time spent up to now is       53.6 secs

     Self-consistent Calculation

     iteration #  1     ecut=    75.00 Ry     beta= 0.70
     Davidson diagonalization with overlap
     ethr =  1.00E-06,  avg # of iterations =  2.0

     Threshold (ethr) on eigenvalues was too large:
     Diagonalizing with lowered threshold

     Davidson diagonalization with overlap
     ethr =  8.32E-08,  avg # of iterations =  1.0

     negative rho (up, down):  5.978E-07 0.000E+00

     total cpu time spent up to now is       55.8 secs

     total energy              =     -16.80850457 Ry
     estimated scf accuracy    <       0.00000814 Ry

     iteration #  2     ecut=    75.00 Ry     beta= 0.70
     Davidson diagonalization with overlap
     ethr =  1.02E-07,  avg # of iterations =  2.0

     negative rho (up, down):  2.506E-07 0.000E+00

     total cpu time spent up to now is       57.5 secs

     total energy              =     -16.80850684 Ry
     estimated scf accuracy    <       0.00000180 Ry

     iteration #  3     ecut=    75.00 Ry     beta= 0.70
     Davidson diagonalization with overlap
     ethr =  2.25E-08,  avg # of iterations =  2.0

     total cpu time spent up to now is       59.1 secs

     total energy              =     -16.80850705 Ry
     estimated scf accuracy    <       0.00000004 Ry

     iteration #  4     ecut=    75.00 Ry     beta= 0.70
     Davidson diagonalization with overlap
     ethr =  5.21E-10,  avg # of iterations =  3.0

     total cpu time spent up to now is       61.2 secs

     total energy              =     -16.80850708 Ry
     estimated scf accuracy    <       0.00000006 Ry

     iteration #  5     ecut=    75.00 Ry     beta= 0.70
     Davidson diagonalization with overlap
     ethr =  5.21E-10,  avg # of iterations =  1.0

     total cpu time spent up to now is       62.9 secs

     total energy              =     -16.80850708 Ry
     estimated scf accuracy    <       0.00000001 Ry

     iteration #  6     ecut=    75.00 Ry     beta= 0.70
     Davidson diagonalization with overlap
     ethr =  1.44E-10,  avg # of iterations =  2.0

     total cpu time spent up to now is       65.0 secs

     total energy              =     -16.80850708 Ry
     estimated scf accuracy    <          1.1E-10 Ry

     iteration #  7     ecut=    75.00 Ry     beta= 0.70
     Davidson diagonalization with overlap
     ethr =  1.32E-12,  avg # of iterations =  4.0

     total cpu time spent up to now is       67.3 secs

     total energy              =     -16.80850708 Ry
     estimated scf accuracy    <          2.0E-09 Ry

     iteration #  8     ecut=    75.00 Ry     beta= 0.70
     Davidson diagonalization with overlap
     ethr =  1.32E-12,  avg # of iterations =  2.0

     total cpu time spent up to now is       69.3 secs

     total energy              =     -16.80850708 Ry
     estimated scf accuracy    <          7.5E-10 Ry

     iteration #  9     ecut=    75.00 Ry     beta= 0.70
     Davidson diagonalization with overlap
     ethr =  1.32E-12,  avg # of iterations =  3.0

     total cpu time spent up to now is       71.3 secs

     End of self-consistent calculation

          k = 0.0000 0.0000 0.0000 ( 87608 PWs)   bands (ev):

   -16.9679  -9.3679  -9.3658  -9.3658

     highest occupied level (ev):    -9.3658

!    total energy              =     -16.80850708 Ry
     estimated scf accuracy    <          1.2E-12 Ry

     The total energy is the sum of the following terms:
     one-electron contribution =     -44.53677656 Ry
     hartree contribution      =      23.12949192 Ry
     xc contribution           =      -7.13253321 Ry
     ewald contribution        =      11.73131077 Ry

     convergence has been achieved in   9 iterations

     Forces acting on atoms (cartesian axes, Ry/au):

     atom    1 type  1   force =     0.00000000   -0.00000235   -0.00015829
     atom    2 type  2   force =     0.00000000   -0.00000040    0.00001710
     atom    3 type  2   force =     0.00000000   -0.00004586    0.00004677
     atom    4 type  2   force =     0.00004111    0.00002431    0.00004721
     atom    5 type  2   force =    -0.00004111    0.00002431    0.00004721

     Total force =     0.000197     Total SCF correction =     0.000001

     bfgs converged in   3 scf cycles and   2 bfgs steps
     (criteria: energy <  1.0E-04 Ry, force <  1.0E-03 Ry/Bohr)

     End of BFGS Geometry Optimization

     Final energy   =     -16.8085070822 Ry

     File ./tmp/graphene.bfgs deleted, as requested
Begin final coordinates

ATOMIC_POSITIONS (angstrom)
C            -0.0000000000       -0.0000004262       -0.0001316284
H             0.0000000000       -0.0000003685        1.0939597011
H             0.0000000000       -1.0314395602       -0.3651266953
H             0.8932518000        0.5157201725       -0.3651249087
H            -0.8932518000        0.5157201725       -0.3651249087
End final coordinates



     Writing output data file ./tmp/graphene.save/

     init_run     :      3.23s CPU      1.78s WALL (       1 calls)
     electrons    :    210.58s CPU     65.07s WALL (       3 calls)
     update_pot   :      3.77s CPU      2.00s WALL (       2 calls)
     forces       :     10.06s CPU      3.43s WALL (       3 calls)

     Called by init_run:
     wfcinit      :      1.58s CPU      0.49s WALL (       1 calls)
     potinit      :      1.10s CPU      0.86s WALL (       1 calls)
     hinit0       :      0.21s CPU      0.23s WALL (       1 calls)

     Called by electrons:
     c_bands      :    152.25s CPU     32.87s WALL (      33 calls)
     sum_band     :     19.33s CPU      8.02s WALL (      33 calls)
     v_of_rho     :     33.72s CPU     21.55s WALL (      35 calls)
     mix_rho      :      7.44s CPU      3.89s WALL (      33 calls)

     Called by c_bands:
     init_us_2    :      2.84s CPU      0.76s WALL (      67 calls)
     regterg      :    149.96s CPU     31.68s WALL (      33 calls)

     Called by *egterg:
     rdiaghg      :      0.04s CPU      0.00s WALL (     102 calls)
     h_psi        :    138.68s CPU     30.58s WALL (     106 calls)
     g_psi        :      1.08s CPU      0.12s WALL (      72 calls)

     Called by h_psi:
     h_psi:calbec :     83.10s CPU      9.13s WALL (     106 calls)
     vloc_psi     :     53.93s CPU     21.29s WALL (     106 calls)
     add_vuspsi   :      1.54s CPU      0.14s WALL (     106 calls)

     General routines
     calbec       :     86.98s CPU      9.51s WALL (     118 calls)
     fft          :     29.30s CPU     15.65s WALL (     307 calls)
     ffts         :      4.28s CPU      1.96s WALL (      33 calls)
     fftw         :     54.97s CPU     22.68s WALL (     492 calls)

     Parallel routines

     PWSCF        :   3m48.40s CPU   1m12.60s WALL


   This run was terminated on:  22:40:42   5Jan2024            

=------------------------------------------------------------------------------=
   JOB DONE.
=------------------------------------------------------------------------------=
