
     Program PWSCF v.6.6 starts on  7Jan2024 at 11:33: 0 

     This program is part of the open-source Quantum ESPRESSO suite
     for quantum simulation of materials; please cite
         "P. Giannozzi et al., J. Phys.:Condens. Matter 21 395502 (2009);
         "P. Giannozzi et al., J. Phys.:Condens. Matter 29 465901 (2017);
          URL http://www.quantum-espresso.org", 
     in publications or presentations arising from this work. More details at
     http://www.quantum-espresso.org/quote

     Parallel version (MPI), running on     1 processors

     MPI processes distributed on     1 nodes
     Fft bands division:     nmany     =       1
     Waiting for input...
     Reading input from standard input

     Current dimensions of program PWSCF are:
     Max number of different atomic species (ntypx) = 10
     Max number of k-points (npk) =  40000
     Max angular momentum in pseudopotentials (lmaxx) =  3

     Subspace diagonalization in iterative solution of the eigenvalue problem:
     a serial algorithm will be used


     G-vector sticks info
     --------------------
     sticks:   dense  smooth     PW     G-vecs:    dense   smooth      PW
     Sum         439     439    151                30493    30493    5657



     bravais-lattice index     =            4
     lattice parameter (alat)  =       4.6500  a.u.
     unit-cell volume          =     348.2968 (a.u.)^3
     number of atoms/cell      =            2
     number of atomic types    =            1
     number of electrons       =         8.00
     number of Kohn-Sham states=            4
     kinetic-energy cutoff     =      75.0000  Ry
     charge density cutoff     =     300.0000  Ry
     convergence threshold     =      1.0E-08
     mixing beta               =       0.7000
     number of iterations used =            8  plain     mixing
     Exchange-correlation= PBE
                           (   1   4   3   4   0   0   0)

     celldm(1)=   4.650000  celldm(2)=   0.000000  celldm(3)=   4.000000
     celldm(4)=   0.000000  celldm(5)=   0.000000  celldm(6)=   0.000000

     crystal axes: (cart. coord. in units of alat)
               a(1) = (   1.000000   0.000000   0.000000 )  
               a(2) = (  -0.500000   0.866025   0.000000 )  
               a(3) = (   0.000000   0.000000   4.000000 )  

     reciprocal axes: (cart. coord. in units 2 pi/alat)
               b(1) = (  1.000000  0.577350 -0.000000 )  
               b(2) = (  0.000000  1.154701  0.000000 )  
               b(3) = (  0.000000 -0.000000  0.250000 )  


     PseudoPot. # 1 for C  read from file:
     ./C.UPF
     MD5 check sum: ead9220225bd72a2f9a48cc2a638047d
     Pseudo is Norm-conserving + core correction, Zval =  4.0
     Generated using ONCVPSP code by D. R. Hamann
     Using radial grid of 1248 points,  4 beta functions with: 
                l(1) =   0
                l(2) =   0
                l(3) =   1
                l(4) =   1

     atomic species   valence    mass     pseudopotential
        C              4.00    12.01070     C ( 1.00)

     24 Sym. Ops., with inversion, found (12 have fractional translation)



   Cartesian axes

     site n.     atom                  positions (alat units)
         1           C   tau(   1) = (   0.0000000   0.0000000   0.0000000  )
         2           C   tau(   2) = (   0.0000000   0.5773497   0.0000000  )

     number of k points=    20
                       cart. coord. in units 2pi/alat
        k(    1) = (   0.0625000   0.1082532  -0.1250000), wk =   0.0625000
        k(    2) = (   0.0625000   0.2525907  -0.1250000), wk =   0.1250000
        k(    3) = (   0.0625000   0.3969283  -0.1250000), wk =   0.1250000
        k(    4) = (   0.0625000   0.5412659  -0.1250000), wk =   0.1250000
        k(    5) = (   0.0625000  -0.4690971  -0.1250000), wk =   0.1250000
        k(    6) = (   0.0625000  -0.3247595  -0.1250000), wk =   0.1250000
        k(    7) = (   0.0625000  -0.1804220  -0.1250000), wk =   0.1250000
        k(    8) = (   0.0625000  -0.0360844  -0.1250000), wk =   0.0625000
        k(    9) = (   0.1875000   0.3247595  -0.1250000), wk =   0.0625000
        k(   10) = (   0.1875000   0.4690971  -0.1250000), wk =   0.1250000
        k(   11) = (   0.1875000   0.6134347  -0.1250000), wk =   0.1250000
        k(   12) = (   0.1875000  -0.3969283  -0.1250000), wk =   0.1250000
        k(   13) = (   0.1875000  -0.2525907  -0.1250000), wk =   0.1250000
        k(   14) = (   0.1875000  -0.1082532  -0.1250000), wk =   0.0625000
        k(   15) = (   0.3125000   0.5412659  -0.1250000), wk =   0.0625000
        k(   16) = (   0.3125000   0.6856034  -0.1250000), wk =   0.1250000
        k(   17) = (   0.3125000  -0.3247595  -0.1250000), wk =   0.1250000
        k(   18) = (   0.3125000  -0.1804220  -0.1250000), wk =   0.0625000
        k(   19) = (   0.4375000   0.7577722  -0.1250000), wk =   0.0625000
        k(   20) = (   0.4375000  -0.2525907  -0.1250000), wk =   0.0625000

     Dense  grid:    30493 G-vectors     FFT dimensions: (  27,  27, 108)

     Estimated max dynamical RAM per process >      25.25 MB

     Initial potential from superposition of free atoms

     starting charge    7.99991, renormalised to    8.00000

     negative rho (up, down):  4.446E-07 0.000E+00
     Starting wfcs are    8 randomized atomic wfcs

     total cpu time spent up to now is        0.4 secs

     Self-consistent Calculation

     iteration #  1     ecut=    75.00 Ry     beta= 0.70
     Davidson diagonalization with overlap
     ethr =  1.00E-02,  avg # of iterations =  2.0

     total cpu time spent up to now is        0.9 secs

     total energy              =     -24.07239237 Ry
     estimated scf accuracy    <       0.17665679 Ry

     iteration #  2     ecut=    75.00 Ry     beta= 0.70
     Davidson diagonalization with overlap
     ethr =  2.21E-03,  avg # of iterations =  2.0

     total cpu time spent up to now is        1.2 secs

     total energy              =     -24.09376716 Ry
     estimated scf accuracy    <       0.00282736 Ry

     iteration #  3     ecut=    75.00 Ry     beta= 0.70
     Davidson diagonalization with overlap
     ethr =  3.53E-05,  avg # of iterations =  3.1

     total cpu time spent up to now is        1.7 secs

     total energy              =     -24.09530841 Ry
     estimated scf accuracy    <       0.00023452 Ry

     iteration #  4     ecut=    75.00 Ry     beta= 0.70
     Davidson diagonalization with overlap
     ethr =  2.93E-06,  avg # of iterations =  3.0

     total cpu time spent up to now is        2.1 secs

     total energy              =     -24.09540251 Ry
     estimated scf accuracy    <       0.00002474 Ry

     iteration #  5     ecut=    75.00 Ry     beta= 0.70
     Davidson diagonalization with overlap
     ethr =  3.09E-07,  avg # of iterations =  3.5

     total cpu time spent up to now is        2.6 secs

     total energy              =     -24.09541526 Ry
     estimated scf accuracy    <       0.00000132 Ry

     iteration #  6     ecut=    75.00 Ry     beta= 0.70
     Davidson diagonalization with overlap
     ethr =  1.66E-08,  avg # of iterations =  3.5

     total cpu time spent up to now is        3.2 secs

     total energy              =     -24.09541613 Ry
     estimated scf accuracy    <       0.00000004 Ry

     iteration #  7     ecut=    75.00 Ry     beta= 0.70
     Davidson diagonalization with overlap
     ethr =  5.04E-10,  avg # of iterations =  5.0

     total cpu time spent up to now is        3.9 secs

     End of self-consistent calculation

          k = 0.0625 0.1083-0.1250 (  3830 PWs)   bands (ev):

   -19.6826  -7.7068  -4.4522  -4.0185

          k = 0.0625 0.2526-0.1250 (  3840 PWs)   bands (ev):

   -18.7647  -7.0467  -6.6179  -5.3949

          k = 0.0625 0.3969-0.1250 (  3824 PWs)   bands (ev):

   -17.1414 -10.2835  -6.5695  -4.7684

          k = 0.0625 0.5413-0.1250 (  3814 PWs)   bands (ev):

   -14.9629 -13.2514  -7.1194  -2.8076

          k = 0.0625-0.4691-0.1250 (  3810 PWs)   bands (ev):

   -16.0906 -11.8549  -6.9334  -3.6871

          k = 0.0625-0.3248-0.1250 (  3820 PWs)   bands (ev):

   -18.0379  -8.6523  -6.0454  -5.7738

          k = 0.0625-0.1804-0.1250 (  3838 PWs)   bands (ev):

   -19.3143  -7.2674  -5.5896  -4.6799

          k = 0.0625-0.0361-0.1250 (  3838 PWs)   bands (ev):

   -19.8674  -7.9282  -3.7996  -3.6219

          k = 0.1875 0.3248-0.1250 (  3828 PWs)   bands (ev):

   -17.4993  -8.9151  -7.4895  -5.1497

          k = 0.1875 0.4691-0.1250 (  3802 PWs)   bands (ev):

   -15.5798 -11.5223  -8.7845  -3.0746

          k = 0.1875 0.6134-0.1250 (  3792 PWs)   bands (ev):

   -14.4785 -12.8273  -9.0095  -2.1497

          k = 0.1875-0.3969-0.1250 (  3810 PWs)   bands (ev):

   -16.6134 -10.1432  -8.3028  -4.1576

          k = 0.1875-0.2526-0.1250 (  3824 PWs)   bands (ev):

   -18.2192  -7.9268  -6.4031  -5.9795

          k = 0.1875-0.1083-0.1250 (  3854 PWs)   bands (ev):

   -19.1306  -7.0498  -6.2238  -4.7925

          k = 0.3125 0.5413-0.1250 (  3816 PWs)   bands (ev):

   -13.5651 -12.5671 -10.8288  -0.9905

          k = 0.3125 0.6856-0.1250 (  3806 PWs)   bands (ev):

   -14.5957 -11.9949  -9.9970  -2.0467

          k = 0.3125-0.3248-0.1250 (  3804 PWs)   bands (ev):

   -16.4377 -10.9645  -7.5605  -3.9955

          k = 0.3125-0.1804-0.1250 (  3824 PWs)   bands (ev):

   -17.6773  -9.4944  -6.0335  -5.3668

          k = 0.4375 0.7578-0.1250 (  3798 PWs)   bands (ev):

   -14.4542 -13.4432  -7.9486  -2.4044

          k = 0.4375-0.2526-0.1250 (  3814 PWs)   bands (ev):

   -15.5851 -12.6438  -6.7469  -3.2687

     highest occupied level (ev):    -0.9905

!    total energy              =     -24.09541618 Ry
     estimated scf accuracy    <          6.0E-10 Ry

     The total energy is the sum of the following terms:
     one-electron contribution =     -88.72002925 Ry
     hartree contribution      =      46.25067058 Ry
     xc contribution           =      -8.58832331 Ry
     ewald contribution        =      26.96226581 Ry

     convergence has been achieved in   7 iterations

     Writing output data file ./tmp/graphene.save/

     init_run     :      2.38s CPU      0.33s WALL (       1 calls)
     electrons    :     32.78s CPU      3.50s WALL (       1 calls)

     Called by init_run:
     wfcinit      :      2.22s CPU      0.25s WALL (       1 calls)
     potinit      :      0.04s CPU      0.02s WALL (       1 calls)
     hinit0       :      0.09s CPU      0.05s WALL (       1 calls)

     Called by electrons:
     c_bands      :     29.53s CPU      2.94s WALL (       7 calls)
     sum_band     :      2.76s CPU      0.41s WALL (       7 calls)
     v_of_rho     :      0.48s CPU      0.14s WALL (       8 calls)
     mix_rho      :      0.03s CPU      0.01s WALL (       7 calls)

     Called by c_bands:
     init_us_2    :      0.98s CPU      0.11s WALL (     300 calls)
     cegterg      :     27.20s CPU      2.73s WALL (     140 calls)

     Called by *egterg:
     cdiaghg      :      0.10s CPU      0.01s WALL (     585 calls)
     h_psi        :     25.86s CPU      2.61s WALL (     605 calls)
     g_psi        :      0.17s CPU      0.02s WALL (     445 calls)

     Called by h_psi:
     h_psi:calbec :      2.27s CPU      0.24s WALL (     605 calls)
     vloc_psi     :     21.76s CPU      2.21s WALL (     605 calls)
     add_vuspsi   :      1.68s CPU      0.15s WALL (     605 calls)

     General routines
     calbec       :      2.26s CPU      0.24s WALL (     605 calls)
     fft          :      0.16s CPU      0.06s WALL (      80 calls)
     ffts         :      0.02s CPU      0.00s WALL (       7 calls)
     fftw         :     20.76s CPU      2.21s WALL (    4692 calls)

     Parallel routines

     PWSCF        :     35.29s CPU      3.91s WALL


   This run was terminated on:  11:33: 4   7Jan2024            

=------------------------------------------------------------------------------=
   JOB DONE.
=------------------------------------------------------------------------------=
