
     Program PWSCF v.6.6 starts on  6Jan2024 at 13:19: 5 

     This program is part of the open-source Quantum ESPRESSO suite
     for quantum simulation of materials; please cite
         "P. Giannozzi et al., J. Phys.:Condens. Matter 21 395502 (2009);
         "P. Giannozzi et al., J. Phys.:Condens. Matter 29 465901 (2017);
          URL http://www.quantum-espresso.org", 
     in publications or presentations arising from this work. More details at
     http://www.quantum-espresso.org/quote

     Parallel version (MPI), running on     1 processors

     MPI processes distributed on     1 nodes
     Fft bands division:     nmany     =       1
     Waiting for input...
     Reading input from standard input

     Current dimensions of program PWSCF are:
     Max number of different atomic species (ntypx) = 10
     Max number of k-points (npk) =  40000
     Max angular momentum in pseudopotentials (lmaxx) =  3

     Atomic positions and unit cell read from directory:
     ./tmp/graphene.save/
     Atomic positions from file used, from input discarded


     Subspace diagonalization in iterative solution of the eigenvalue problem:
     a serial algorithm will be used


     G-vector sticks info
     --------------------
     sticks:   dense  smooth     PW     G-vecs:    dense   smooth      PW
     Sum         439     439    139                30493    30493    5091



     bravais-lattice index     =            4
     lattice parameter (alat)  =       4.6500  a.u.
     unit-cell volume          =     348.2968 (a.u.)^3
     number of atoms/cell      =            2
     number of atomic types    =            1
     number of electrons       =         8.00
     number of Kohn-Sham states=           10
     kinetic-energy cutoff     =      75.0000  Ry
     charge density cutoff     =     300.0000  Ry
     Exchange-correlation= PBE
                           (   1   4   3   4   0   0   0)

     celldm(1)=   4.650000  celldm(2)=   0.000000  celldm(3)=   4.000000
     celldm(4)=   0.000000  celldm(5)=   0.000000  celldm(6)=   0.000000

     crystal axes: (cart. coord. in units of alat)
               a(1) = (   1.000000   0.000000   0.000000 )  
               a(2) = (  -0.500000   0.866025   0.000000 )  
               a(3) = (   0.000000   0.000000   4.000000 )  

     reciprocal axes: (cart. coord. in units 2 pi/alat)
               b(1) = (  1.000000  0.577350 -0.000000 )  
               b(2) = (  0.000000  1.154701  0.000000 )  
               b(3) = (  0.000000 -0.000000  0.250000 )  


     PseudoPot. # 1 for C  read from file:
     ./C.UPF
     MD5 check sum: ead9220225bd72a2f9a48cc2a638047d
     Pseudo is Norm-conserving + core correction, Zval =  4.0
     Generated using ONCVPSP code by D. R. Hamann
     Using radial grid of 1248 points,  4 beta functions with: 
                l(1) =   0
                l(2) =   0
                l(3) =   1
                l(4) =   1

     atomic species   valence    mass     pseudopotential
        C              4.00    12.01070     C ( 1.00)

     24 Sym. Ops., with inversion, found (12 have fractional translation)



   Cartesian axes

     site n.     atom                  positions (alat units)
         1           C   tau(   1) = (   0.0000000   0.0000000   0.0000000  )
         2           C   tau(   2) = (   0.0000000   0.5773497   0.0000000  )

     number of k points=    99
                       cart. coord. in units 2pi/alat
        k(    1) = (   0.0000000   0.0000000   0.0000000), wk =   0.0202020
        k(    2) = (   0.0166667  -0.0000000  -0.0031250), wk =   0.0202020
        k(    3) = (   0.0333333  -0.0000000  -0.0062500), wk =   0.0202020
        k(    4) = (   0.0500000  -0.0000000  -0.0093750), wk =   0.0202020
        k(    5) = (   0.0666667  -0.0000000  -0.0125000), wk =   0.0202020
        k(    6) = (   0.0833333   0.0000000  -0.0156250), wk =   0.0202020
        k(    7) = (   0.1000000  -0.0000000  -0.0187500), wk =   0.0202020
        k(    8) = (   0.1166667   0.0000000  -0.0218750), wk =   0.0202020
        k(    9) = (   0.1333333  -0.0000000  -0.0250000), wk =   0.0202020
        k(   10) = (   0.1500000   0.0000000  -0.0281250), wk =   0.0202020
        k(   11) = (   0.1666667   0.0000000  -0.0312500), wk =   0.0202020
        k(   12) = (   0.1833333   0.0000000  -0.0343750), wk =   0.0202020
        k(   13) = (   0.2000000  -0.0000000  -0.0375000), wk =   0.0202020
        k(   14) = (   0.2166667   0.0000000  -0.0406250), wk =   0.0202020
        k(   15) = (   0.2333333   0.0000000  -0.0437500), wk =   0.0202020
        k(   16) = (   0.2500000  -0.0000000  -0.0468750), wk =   0.0202020
        k(   17) = (   0.2666667  -0.0000000  -0.0500000), wk =   0.0202020
        k(   18) = (   0.2833333   0.0000000  -0.0531250), wk =   0.0202020
        k(   19) = (   0.3000000   0.0000000  -0.0562500), wk =   0.0202020
        k(   20) = (   0.3166667  -0.0000000  -0.0593750), wk =   0.0202020
        k(   21) = (   0.3333333   0.0000000  -0.0625000), wk =   0.0202020
        k(   22) = (   0.3500000  -0.0000000  -0.0656250), wk =   0.0202020
        k(   23) = (   0.3666667   0.0000000  -0.0687500), wk =   0.0202020
        k(   24) = (   0.3833333  -0.0000000  -0.0718750), wk =   0.0202020
        k(   25) = (   0.4000000  -0.0000000  -0.0750000), wk =   0.0202020
        k(   26) = (   0.4166667   0.0000000  -0.0781250), wk =   0.0202020
        k(   27) = (   0.4333333   0.0000000  -0.0812500), wk =   0.0202020
        k(   28) = (   0.4500000   0.0000000  -0.0843750), wk =   0.0202020
        k(   29) = (   0.4666667   0.0000000  -0.0875000), wk =   0.0202020
        k(   30) = (   0.4833333  -0.0000000  -0.0906250), wk =   0.0202020
        k(   31) = (   0.5000000  -0.0000000  -0.0937500), wk =   0.0202020
        k(   32) = (   0.5166667  -0.0000000  -0.0968750), wk =   0.0202020
        k(   33) = (   0.5333333  -0.0000000  -0.1000000), wk =   0.0202020
        k(   34) = (   0.5500000   0.0000000  -0.1031250), wk =   0.0202020
        k(   35) = (   0.5666667   0.0000000  -0.1062500), wk =   0.0202020
        k(   36) = (   0.5833333  -0.0000000  -0.1093750), wk =   0.0202020
        k(   37) = (   0.6000000   0.0000000  -0.1125000), wk =   0.0202020
        k(   38) = (   0.6166667   0.0000000  -0.1156250), wk =   0.0202020
        k(   39) = (   0.6333333  -0.0000000  -0.1187500), wk =   0.0202020
        k(   40) = (   0.6500000  -0.0000000  -0.1218750), wk =   0.0202020
        k(   41) = (   0.6666667   0.0000000  -0.1250000), wk =   0.0202020
        k(   42) = (   0.6583333  -0.0144338  -0.1250000), wk =   0.0202020
        k(   43) = (   0.6500000  -0.0288675  -0.1250000), wk =   0.0202020
        k(   44) = (   0.6416667  -0.0433013  -0.1250000), wk =   0.0202020
        k(   45) = (   0.6333333  -0.0577350  -0.1250000), wk =   0.0202020
        k(   46) = (   0.6250000  -0.0721688  -0.1250000), wk =   0.0202020
        k(   47) = (   0.6166667  -0.0866025  -0.1250000), wk =   0.0202020
        k(   48) = (   0.6083333  -0.1010363  -0.1250000), wk =   0.0202020
        k(   49) = (   0.6000000  -0.1154701  -0.1250000), wk =   0.0202020
        k(   50) = (   0.5916667  -0.1299038  -0.1250000), wk =   0.0202020
        k(   51) = (   0.5833333  -0.1443376  -0.1250000), wk =   0.0202020
        k(   52) = (   0.5750000  -0.1587713  -0.1250000), wk =   0.0202020
        k(   53) = (   0.5666667  -0.1732051  -0.1250000), wk =   0.0202020
        k(   54) = (   0.5583333  -0.1876388  -0.1250000), wk =   0.0202020
        k(   55) = (   0.5500000  -0.2020726  -0.1250000), wk =   0.0202020
        k(   56) = (   0.5416667  -0.2165064  -0.1250000), wk =   0.0202020
        k(   57) = (   0.5333333  -0.2309401  -0.1250000), wk =   0.0202020
        k(   58) = (   0.5250000  -0.2453739  -0.1250000), wk =   0.0202020
        k(   59) = (   0.5166667  -0.2598076  -0.1250000), wk =   0.0202020
        k(   60) = (   0.5083333  -0.2742414  -0.1250000), wk =   0.0202020
        k(   61) = (   0.5000000  -0.2886751  -0.1250000), wk =   0.0202020
        k(   62) = (   0.4868421  -0.2810784  -0.1217105), wk =   0.0202020
        k(   63) = (   0.4736842  -0.2734817  -0.1184211), wk =   0.0202020
        k(   64) = (   0.4605263  -0.2658850  -0.1151316), wk =   0.0202020
        k(   65) = (   0.4473684  -0.2582883  -0.1118421), wk =   0.0202020
        k(   66) = (   0.4342105  -0.2506916  -0.1085526), wk =   0.0202020
        k(   67) = (   0.4210526  -0.2430949  -0.1052632), wk =   0.0202020
        k(   68) = (   0.4078947  -0.2354981  -0.1019737), wk =   0.0202020
        k(   69) = (   0.3947368  -0.2279014  -0.0986842), wk =   0.0202020
        k(   70) = (   0.3815789  -0.2203047  -0.0953947), wk =   0.0202020
        k(   71) = (   0.3684211  -0.2127080  -0.0921053), wk =   0.0202020
        k(   72) = (   0.3552632  -0.2051113  -0.0888158), wk =   0.0202020
        k(   73) = (   0.3421053  -0.1975146  -0.0855263), wk =   0.0202020
        k(   74) = (   0.3289474  -0.1899179  -0.0822368), wk =   0.0202020
        k(   75) = (   0.3157895  -0.1823211  -0.0789474), wk =   0.0202020
        k(   76) = (   0.3026316  -0.1747244  -0.0756579), wk =   0.0202020
        k(   77) = (   0.2894737  -0.1671277  -0.0723684), wk =   0.0202020
        k(   78) = (   0.2763158  -0.1595310  -0.0690789), wk =   0.0202020
        k(   79) = (   0.2631579  -0.1519343  -0.0657895), wk =   0.0202020
        k(   80) = (   0.2500000  -0.1443376  -0.0625000), wk =   0.0202020
        k(   81) = (   0.2368421  -0.1367409  -0.0592105), wk =   0.0202020
        k(   82) = (   0.2236842  -0.1291441  -0.0559211), wk =   0.0202020
        k(   83) = (   0.2105263  -0.1215474  -0.0526316), wk =   0.0202020
        k(   84) = (   0.1973684  -0.1139507  -0.0493421), wk =   0.0202020
        k(   85) = (   0.1842105  -0.1063540  -0.0460526), wk =   0.0202020
        k(   86) = (   0.1710526  -0.0987573  -0.0427632), wk =   0.0202020
        k(   87) = (   0.1578947  -0.0911606  -0.0394737), wk =   0.0202020
        k(   88) = (   0.1447368  -0.0835639  -0.0361842), wk =   0.0202020
        k(   89) = (   0.1315789  -0.0759671  -0.0328947), wk =   0.0202020
        k(   90) = (   0.1184211  -0.0683704  -0.0296053), wk =   0.0202020
        k(   91) = (   0.1052632  -0.0607737  -0.0263158), wk =   0.0202020
        k(   92) = (   0.0921053  -0.0531770  -0.0230263), wk =   0.0202020
        k(   93) = (   0.0789474  -0.0455803  -0.0197368), wk =   0.0202020
        k(   94) = (   0.0657895  -0.0379836  -0.0164474), wk =   0.0202020
        k(   95) = (   0.0526316  -0.0303869  -0.0131579), wk =   0.0202020
        k(   96) = (   0.0394737  -0.0227901  -0.0098684), wk =   0.0202020
        k(   97) = (   0.0263158  -0.0151934  -0.0065789), wk =   0.0202020
        k(   98) = (   0.0131579  -0.0075967  -0.0032895), wk =   0.0202020
        k(   99) = (   0.0000000   0.0000000   0.0000000), wk =   0.0202020

     Dense  grid:    30493 G-vectors     FFT dimensions: (  27,  27, 108)

     Estimated max dynamical RAM per process >      13.84 MB

     The potential is recalculated from file :
     ./tmp/graphene.save/charge-density

     Starting wfcs are    8 randomized atomic wfcs +    2 random wfcs

     Band Structure Calculation
     Davidson diagonalization with overlap

     ethr =  1.25E-10,  avg # of iterations = 36.5

     total cpu time spent up to now is       37.4 secs

     End of band structure calculation

          k = 0.0000 0.0000 0.0000 (  3807 PWs)   bands (ev):

   -19.9596  -8.0391  -3.4229  -3.4229   2.7263   4.3673   5.6390   8.0653
     8.0654  10.5218

          k = 0.0167-0.0000-0.0031 (  3795 PWs)   bands (ev):

   -19.9546  -8.0331  -3.4434  -3.4339   2.7334   4.3722   5.6479   8.0688
     8.0873  10.5238

          k = 0.0333-0.0000-0.0063 (  3815 PWs)   bands (ev):

   -19.9398  -8.0153  -3.5050  -3.4669   2.7545   4.3868   5.6747   8.0786
     8.1516  10.5300

          k = 0.0500-0.0000-0.0094 (  3827 PWs)   bands (ev):

   -19.9151  -7.9857  -3.6052  -3.5216   2.7898   4.4113   5.7191   8.0954
     8.2561  10.5408

          k = 0.0667-0.0000-0.0125 (  3831 PWs)   bands (ev):

   -19.8806  -7.9442  -3.7415  -3.5974   2.8391   4.4459   5.7810   8.1195
     8.3965  10.5567

          k = 0.0833 0.0000-0.0156 (  3837 PWs)   bands (ev):

   -19.8362  -7.8910  -3.9106  -3.6937   2.9026   4.4907   5.8602   8.1511
     8.5678  10.5787

          k = 0.1000-0.0000-0.0188 (  3834 PWs)   bands (ev):

   -19.7820  -7.8260  -4.1087  -3.8096   2.9802   4.5462   5.9563   8.1909
     8.7636  10.5090

          k = 0.1167 0.0000-0.0219 (  3849 PWs)   bands (ev):

   -19.7180  -7.7493  -4.3321  -3.9442   3.0718   4.6125   6.0690   8.2389
     8.9771  10.3005

          k = 0.1333-0.0000-0.0250 (  3851 PWs)   bands (ev):

   -19.6442  -7.6610  -4.5766  -4.0965   3.1776   4.6900   6.1980   8.2962
     9.2012  10.0660

          k = 0.1500 0.0000-0.0281 (  3851 PWs)   bands (ev):

   -19.5606  -7.5611  -4.8388  -4.2652   3.2974   4.7789   6.3430   8.3629
     9.4291   9.8080

          k = 0.1667 0.0000-0.0312 (  3856 PWs)   bands (ev):

   -19.4672  -7.4497  -5.1154  -4.4491   3.4313   4.8796   6.5036   8.4395
     9.5284   9.6546

          k = 0.1833 0.0000-0.0344 (  3850 PWs)   bands (ev):

   -19.3642  -7.3270  -5.4034  -4.6467   3.5792   4.9923   6.6794   8.5265
     9.2301   9.8724

          k = 0.2000-0.0000-0.0375 (  3845 PWs)   bands (ev):

   -19.2515  -7.1929  -5.7001  -4.8569   3.7411   5.1172   6.8702   8.6240
     8.9151  10.0790

          k = 0.2167 0.0000-0.0406 (  3851 PWs)   bands (ev):

   -19.1291  -7.0477  -6.0034  -5.0782   3.9171   5.2545   7.0756   8.5856
     8.7322  10.2724

          k = 0.2333 0.0000-0.0438 (  3847 PWs)   bands (ev):

   -18.9972  -6.8916  -6.3111  -5.3092   4.1070   5.4043   7.2953   8.2441
     8.8515  10.4520

          k = 0.2500-0.0000-0.0469 (  3844 PWs)   bands (ev):

   -18.8557  -6.7245  -6.6215  -5.5487   4.3107   5.5668   7.5288   7.8928
     8.9817  10.6184

          k = 0.2667-0.0000-0.0500 (  3836 PWs)   bands (ev):

   -18.7048  -6.9331  -6.5468  -5.7952   4.5284   5.7422   7.5335   7.7758
     9.1229  10.7730

          k = 0.2833 0.0000-0.0531 (  3833 PWs)   bands (ev):

   -18.5445  -7.2447  -6.3587  -6.0476   4.7598   5.9304   7.1680   8.0357
     9.2750  10.9174

          k = 0.3000 0.0000-0.0563 (  3828 PWs)   bands (ev):

   -18.3748  -7.5551  -6.3046  -6.1604   5.0050   6.1315   6.7981   8.3080
     9.4379  11.0535

          k = 0.3167-0.0000-0.0594 (  3823 PWs)   bands (ev):

   -18.1960  -7.8633  -6.5651  -5.9521   5.2638   6.3456   6.4254   8.5920
     9.6113  11.1826

          k = 0.3333 0.0000-0.0625 (  3835 PWs)   bands (ev):

   -18.0080  -8.1687  -6.8281  -5.7342   5.5361   6.0512   6.5726   8.8868
     9.7949  11.3063

          k = 0.3500-0.0000-0.0656 (  3828 PWs)   bands (ev):

   -17.8110  -8.4704  -7.0924  -5.5069   5.6771   5.8218   6.8124   9.1912
     9.9885  11.4257

          k = 0.3667 0.0000-0.0688 (  3827 PWs)   bands (ev):

   -17.6051  -8.7678  -7.3570  -5.2707   5.3040   6.1208   7.0650   9.5036
    10.1917  11.5418

          k = 0.3833-0.0000-0.0719 (  3830 PWs)   bands (ev):

   -17.3905  -9.0603  -7.6211  -5.0260   4.9331   6.4329   7.3300   9.8217
    10.4039  11.6550

          k = 0.4000-0.0000-0.0750 (  3828 PWs)   bands (ev):

   -17.1674  -9.3476  -7.8838  -4.7732   4.5654   6.7578   7.6072  10.1421
    10.6246  11.7660

          k = 0.4167 0.0000-0.0781 (  3823 PWs)   bands (ev):

   -16.9359  -9.6292  -8.1443  -4.5129   4.2018   7.0954   7.8959  10.4601
    10.8528  11.8749

          k = 0.4333 0.0000-0.0813 (  3816 PWs)   bands (ev):

   -16.6963  -9.9047  -8.4016  -4.2457   3.8432   7.4452   8.1955  10.7685
    11.0865  11.9818

          k = 0.4500 0.0000-0.0844 (  3809 PWs)   bands (ev):

   -16.4489 -10.1739  -8.6551  -3.9723   3.4901   7.8069   8.5044  11.0583
    11.3217  12.0864

          k = 0.4667 0.0000-0.0875 (  3815 PWs)   bands (ev):

   -16.1940 -10.4365  -8.9041  -3.6935   3.1432   8.1799   8.8208  11.3173
    11.5511  12.1883

          k = 0.4833-0.0000-0.0906 (  3807 PWs)   bands (ev):

   -15.9320 -10.6922  -9.1476  -3.4101   2.8032   8.5636   9.1409  11.5264
    11.7720  12.2868

          k = 0.5000-0.0000-0.0938 (  3811 PWs)   bands (ev):

   -15.6635 -10.9410  -9.3849  -3.1231   2.4705   8.9569   9.4587  11.6644
    11.9926  12.3808

          k = 0.5167-0.0000-0.0969 (  3813 PWs)   bands (ev):

   -15.3891 -11.1824  -9.6151  -2.8336   2.1457   9.3582   9.7635  11.7409
    12.2152  12.4692

          k = 0.5333-0.0000-0.1000 (  3817 PWs)   bands (ev):

   -15.1097 -11.4165  -9.8371  -2.5429   1.8292   9.7640  10.0385  11.8000
    12.4321  12.5499

          k = 0.5500 0.0000-0.1031 (  3813 PWs)   bands (ev):

   -14.8264 -11.6431 -10.0496  -2.2524   1.5214  10.1499  10.2787  11.8972
    12.6210  12.6354

          k = 0.5667 0.0000-0.1063 (  3814 PWs)   bands (ev):

   -14.5408 -11.8620 -10.2512  -1.9635   1.2225  10.3463  10.6282  12.0763
    12.6796  12.8173

          k = 0.5833-0.0000-0.1094 (  3810 PWs)   bands (ev):

   -14.2549 -12.0732 -10.4395  -1.6778   0.9330  10.4015  11.0382  12.3478
    12.7226  12.9704

          k = 0.6000 0.0000-0.1125 (  3803 PWs)   bands (ev):

   -13.9721 -12.2766 -10.6116  -1.3973   0.6532  10.3980  11.4459  12.6934
    12.7468  13.0881

          k = 0.6167 0.0000-0.1156 (  3811 PWs)   bands (ev):

   -13.6972 -12.4720 -10.7628  -1.1238   0.3832  10.3688  11.8356  12.7491
    13.0867  13.1689

          k = 0.6333-0.0000-0.1188 (  3829 PWs)   bands (ev):

   -13.4373 -12.6595 -10.8861  -0.8592   0.1234  10.3349  12.1858  12.7274
    13.2068  13.5157

          k = 0.6500-0.0000-0.1219 (  3831 PWs)   bands (ev):

   -13.2034 -12.8389 -10.9708  -0.6056  -0.1261  10.3091  12.4604  12.6813
    13.2259  13.9439

          k = 0.6667 0.0000-0.1250 (  3822 PWs)   bands (ev):

   -13.0102 -13.0102 -11.0025  -0.3650  -0.3649  10.2993  12.6120  12.6120
    13.2346  14.3059

          k = 0.6583-0.0144-0.1250 (  3838 PWs)   bands (ev):

   -13.1734 -12.8735 -10.9663  -0.5932  -0.1391  10.3103  12.5223  12.6278
    13.2073  14.0415

          k = 0.6500-0.0289-0.1250 (  3816 PWs)   bands (ev):

   -13.3283 -12.8014 -10.8545  -0.8104   0.0705  10.3446  12.4168  12.5462
    13.0900  13.7904

          k = 0.6417-0.0433-0.1250 (  3810 PWs)   bands (ev):

   -13.4750 -12.7883 -10.6737  -1.0167   0.2625  10.4031  12.2997  12.3971
    12.8794  13.5528

          k = 0.6333-0.0577-0.1250 (  3810 PWs)   bands (ev):

   -13.6135 -12.8187 -10.4402  -1.2118   0.4359  10.4852  12.1745  12.1753
    12.6304  13.3286

          k = 0.6250-0.0722-0.1250 (  3806 PWs)   bands (ev):

   -13.7436 -12.8766 -10.1712  -1.3955   0.5905  10.5884  11.8574  12.0476
    12.4074  13.1179

          k = 0.6167-0.0866-0.1250 (  3802 PWs)   bands (ev):

   -13.8655 -12.9498  -9.8802  -1.5679   0.7263  10.7085  11.4638  11.9196
    12.2239  12.9207

          k = 0.6083-0.1010-0.1250 (  3790 PWs)   bands (ev):

   -13.9790 -13.0303  -9.5769  -1.7287   0.8440  10.8395  11.0305  11.7941
    12.0646  12.7371

          k = 0.6000-0.1155-0.1250 (  3790 PWs)   bands (ev):

   -14.0842 -13.1129  -9.2683  -1.8779   0.9443  10.5817  10.9736  11.6729
    11.9203  12.5670

          k = 0.5917-0.1299-0.1250 (  3786 PWs)   bands (ev):

   -14.1810 -13.1942  -8.9599  -2.0155   1.0286  10.1320  11.1016  11.5577
    11.7877  12.4104

          k = 0.5833-0.1443-0.1250 (  3786 PWs)   bands (ev):

   -14.2695 -13.2720  -8.6566  -2.1413   1.0985   9.6913  11.2144  11.4498
    11.6661  12.2675

          k = 0.5750-0.1588-0.1250 (  3794 PWs)   bands (ev):

   -14.3495 -13.3449  -8.3625  -2.2554   1.1555   9.2672  11.3047  11.3501
    11.5552  12.1381

          k = 0.5667-0.1732-0.1250 (  3802 PWs)   bands (ev):

   -14.4212 -13.4119  -8.0821  -2.3575   1.2013   8.8663  11.2593  11.3693
    11.4553  12.0223

          k = 0.5583-0.1876-0.1250 (  3798 PWs)   bands (ev):

   -14.4844 -13.4721  -7.8193  -2.4478   1.2375   8.4946  11.1782  11.3665
    11.4097  11.9201

          k = 0.5500-0.2021-0.1250 (  3804 PWs)   bands (ev):

   -14.5392 -13.5250  -7.5789  -2.5262   1.2657   8.1577  11.1070  11.2891
    11.4303  11.8315

          k = 0.5417-0.2165-0.1250 (  3810 PWs)   bands (ev):

   -14.5856 -13.5703  -7.3652  -2.5926   1.2872   7.8610  11.0463  11.2233
    11.4372  11.7565

          k = 0.5333-0.2309-0.1250 (  3816 PWs)   bands (ev):

   -14.6235 -13.6077  -7.1828  -2.6469   1.3031   7.6097  10.9963  11.1693
    11.4357  11.6952

          k = 0.5250-0.2454-0.1250 (  3820 PWs)   bands (ev):

   -14.6531 -13.6370  -7.0356  -2.6892   1.3145   7.4085  10.9572  11.1271
    11.4305  11.6475

          k = 0.5167-0.2598-0.1250 (  3804 PWs)   bands (ev):

   -14.6741 -13.6580  -6.9274  -2.7193   1.3221   7.2616  10.9292  11.0969
    11.4247  11.6134

          k = 0.5083-0.2742-0.1250 (  3804 PWs)   bands (ev):

   -14.6868 -13.6707  -6.8613  -2.7374   1.3264   7.1721  10.9123  11.0788
    11.4204  11.5929

          k = 0.5000-0.2887-0.1250 (  3808 PWs)   bands (ev):

   -14.6910 -13.6749  -6.8391  -2.7435   1.3278   7.1420  10.9067  11.0727
    11.4188  11.5861

          k = 0.4868-0.2811-0.1217 (  3814 PWs)   bands (ev):

   -14.7655 -13.5943  -6.8350  -2.7706   1.3614   7.1440  10.5845  11.0916
    11.4006  11.9211

          k = 0.4737-0.2735-0.1184 (  3811 PWs)   bands (ev):

   -14.9434 -13.3980  -6.8226  -2.8492   1.4593   7.1501  10.1982  10.7038
    11.8037  12.3287

          k = 0.4605-0.2659-0.1151 (  3813 PWs)   bands (ev):

   -15.1654 -13.1455  -6.8020  -2.9725   1.6146   7.1602   9.8158  10.3248
    12.2135  12.7144

          k = 0.4474-0.2583-0.1118 (  3813 PWs)   bands (ev):

   -15.4031 -12.8649  -6.7733  -3.1314   1.8180   7.1742   9.4399   9.9575
    12.6267  12.8698

          k = 0.4342-0.2507-0.1086 (  3814 PWs)   bands (ev):

   -15.6453 -12.5679  -6.7365  -3.3169   2.0605   7.1918   9.0714   9.6027
    12.6333  13.0405

          k = 0.4211-0.2431-0.1053 (  3814 PWs)   bands (ev):

   -15.8869 -12.2597  -6.6916  -3.5212   2.3339   7.2126   8.7112   9.2607
    12.3156  13.4502

          k = 0.4079-0.2355-0.1020 (  3803 PWs)   bands (ev):

   -16.1251 -11.9430  -6.6388  -3.7379   2.6318   7.2357   8.3608   8.9318
    11.9826  13.7960

          k = 0.3947-0.2279-0.0987 (  3820 PWs)   bands (ev):

   -16.3587 -11.6194  -6.5782  -3.9624   2.9486   7.2589   8.0224   8.6159
    11.6456  13.5816

          k = 0.3816-0.2203-0.0954 (  3817 PWs)   bands (ev):

   -16.5868 -11.2899  -6.5099  -4.1908   3.2805   7.2733   7.7051   8.3132
    11.3090  13.3271

          k = 0.3684-0.2127-0.0921 (  3831 PWs)   bands (ev):

   -16.8088 -10.9555  -6.4342  -4.4203   3.6238   7.2184   7.4691   8.0241
    10.9752  13.0831

          k = 0.3553-0.2051-0.0888 (  3825 PWs)   bands (ev):

   -17.0243 -10.6168  -6.3511  -4.6488   3.9760   6.9828   7.4237   7.7509
    10.6459  12.8515

          k = 0.3421-0.1975-0.0855 (  3821 PWs)   bands (ev):

   -17.2331 -10.2744  -6.2608  -4.8746   4.3345   6.6936   7.4087   7.5265
    10.3225  12.6325

          k = 0.3289-0.1899-0.0822 (  3819 PWs)   bands (ev):

   -17.4348  -9.9290  -6.1636  -5.0964   4.6969   6.4044   7.2104   7.5115
    10.0062  12.4260

          k = 0.3158-0.1823-0.0789 (  3824 PWs)   bands (ev):

   -17.6294  -9.5813  -6.0600  -5.3132   5.0605   6.1229   6.9771   7.5501
     9.6977  12.2317

          k = 0.3026-0.1747-0.0757 (  3832 PWs)   bands (ev):

   -17.8167  -9.2317  -5.9501  -5.5242   5.4201   5.8528   6.7555   7.5953
     9.3981  12.0494

          k = 0.2895-0.1671-0.0724 (  3837 PWs)   bands (ev):

   -17.9966  -8.8811  -5.8342  -5.7288   5.5774   5.7841   6.5561   7.6429
     9.1082  11.8788

          k = 0.2763-0.1595-0.0691 (  3832 PWs)   bands (ev):

   -18.1690  -8.5302  -5.9263  -5.7128   5.3326   6.0591   6.4354   7.6910
     8.8292  11.7199

          k = 0.2632-0.1519-0.0658 (  3841 PWs)   bands (ev):

   -18.3337  -8.1798  -6.1164  -5.5864   5.0931   6.0462   6.6166   7.7374
     8.5630  11.5723

          k = 0.2500-0.1443-0.0625 (  3848 PWs)   bands (ev):

   -18.4908  -7.8307  -6.2987  -5.4555   4.8642   5.8935   6.9441   7.7775
     8.3145  11.4359

          k = 0.2368-0.1367-0.0592 (  3846 PWs)   bands (ev):

   -18.6401  -7.4839  -6.4728  -5.3207   4.6465   5.7309   7.2832   7.7950
     8.1027  11.3103

          k = 0.2237-0.1291-0.0559 (  3850 PWs)   bands (ev):

   -18.7817  -7.1405  -6.6386  -5.1825   4.4401   5.5741   7.5751   7.7612
     7.9971  11.1956

          k = 0.2105-0.1215-0.0526 (  3852 PWs)   bands (ev):

   -18.9154  -6.8016  -6.7958  -5.0418   4.2452   5.4263   7.4938   7.9715
     8.0231  11.0913

          k = 0.1974-0.1140-0.0493 (  3852 PWs)   bands (ev):

   -19.0412  -6.9442  -6.4686  -4.8995   4.0619   5.2885   7.2986   8.0230
     8.3213  10.9972

          k = 0.1842-0.1064-0.0461 (  3850 PWs)   bands (ev):

   -19.1590  -7.0835  -6.1427  -4.7564   3.8902   5.1609   7.1014   8.0564
     8.6364  10.9132

          k = 0.1711-0.0988-0.0428 (  3847 PWs)   bands (ev):

   -19.2689  -7.2138  -5.8257  -4.6136   3.7303   5.0436   6.9119   8.0867
     8.9413  10.7420

          k = 0.1579-0.0912-0.0395 (  3843 PWs)   bands (ev):

   -19.3707  -7.3348  -5.5191  -4.4722   3.5820   4.9366   6.7329   8.1122
     9.2331  10.3850

          k = 0.1447-0.0836-0.0362 (  3853 PWs)   bands (ev):

   -19.4645  -7.4465  -5.2249  -4.3334   3.4455   4.8397   6.5655   8.1315
     9.5095  10.0465

          k = 0.1316-0.0760-0.0329 (  3852 PWs)   bands (ev):

   -19.5502  -7.5488  -4.9450  -4.1988   3.3208   4.7528   6.4105   8.1443
     9.7284   9.7693

          k = 0.1184-0.0684-0.0296 (  3854 PWs)   bands (ev):

   -19.6279  -7.6415  -4.6815  -4.0698   3.2079   4.6756   6.2684   8.1501
     9.4324  10.0103

          k = 0.1053-0.0608-0.0263 (  3846 PWs)   bands (ev):

   -19.6974  -7.7247  -4.4367  -3.9480   3.1069   4.6078   6.1397   8.1496
     9.1605  10.2311

          k = 0.0921-0.0532-0.0230 (  3843 PWs)   bands (ev):

   -19.7588  -7.7981  -4.2132  -3.8348   3.0177   4.5492   6.0248   8.1430
     8.9146  10.4297

          k = 0.0789-0.0456-0.0197 (  3836 PWs)   bands (ev):

   -19.8120  -7.8619  -4.0128  -3.7322   2.9404   4.4994   5.9241   8.1319
     8.6964  10.5527

          k = 0.0658-0.0380-0.0164 (  3832 PWs)   bands (ev):

   -19.8571  -7.9160  -3.8385  -3.6419   2.8750   4.4581   5.8380   8.1177
     8.5081  10.5418

          k = 0.0526-0.0304-0.0132 (  3825 PWs)   bands (ev):

   -19.8939  -7.9602  -3.6921  -3.5653   2.8215   4.4249   5.7669   8.1023
     8.3512  10.5330

          k = 0.0395-0.0228-0.0099 (  3823 PWs)   bands (ev):

   -19.9226  -7.9947  -3.5759  -3.5040   2.7799   4.3995   5.7112   8.0878
     8.2273  10.5273

          k = 0.0263-0.0152-0.0066 (  3809 PWs)   bands (ev):

   -19.9431  -8.0193  -3.4914  -3.4593   2.7501   4.3815   5.6712   8.0759
     8.1377  10.5240

          k = 0.0132-0.0076-0.0033 (  3800 PWs)   bands (ev):

   -19.9555  -8.0341  -3.4400  -3.4320   2.7323   4.3709   5.6471   8.0682
     8.0835  10.5223

          k = 0.0000 0.0000 0.0000 (  3807 PWs)   bands (ev):

   -19.9596  -8.0391  -3.4229  -3.4229   2.7263   4.3673   5.6390   8.0653
     8.0654  10.5218

     Writing output data file ./tmp/graphene.save/

     init_run     :      0.46s CPU      0.09s WALL (       1 calls)
     electrons    :    346.04s CPU     37.19s WALL (       1 calls)

     Called by init_run:
     wfcinit      :      0.00s CPU      0.00s WALL (       1 calls)
     potinit      :      0.03s CPU      0.02s WALL (       1 calls)
     hinit0       :      0.14s CPU      0.03s WALL (       1 calls)

     Called by electrons:
     c_bands      :    346.04s CPU     37.19s WALL (       1 calls)
     v_of_rho     :      0.03s CPU      0.01s WALL (       1 calls)

     Called by c_bands:
     init_us_2    :      0.27s CPU      0.04s WALL (      99 calls)
     cegterg      :    331.50s CPU     35.58s WALL (     229 calls)

     Called by *egterg:
     cdiaghg      :      3.78s CPU      0.44s WALL (    3712 calls)
     h_psi        :    277.12s CPU     29.53s WALL (    3941 calls)
     g_psi        :      2.02s CPU      0.26s WALL (    3613 calls)

     Called by h_psi:
     h_psi:calbec :     24.85s CPU      2.74s WALL (    3941 calls)
     vloc_psi     :    232.11s CPU     24.53s WALL (    3941 calls)
     add_vuspsi   :     19.39s CPU      2.16s WALL (    3941 calls)

     General routines
     calbec       :     24.75s CPU      2.73s WALL (    3941 calls)
     fft          :      0.01s CPU      0.01s WALL (      11 calls)
     fftw         :    203.85s CPU     21.59s WALL (   45970 calls)
     davcio       :      0.16s CPU      0.02s WALL (     198 calls)

     Parallel routines

     PWSCF        :   5m46.99s CPU     37.51s WALL


   This run was terminated on:  13:19:43   6Jan2024            

=------------------------------------------------------------------------------=
   JOB DONE.
=------------------------------------------------------------------------------=
