
     Program PWSCF v.6.6 starts on 19Dec2023 at 23:41: 3 

     This program is part of the open-source Quantum ESPRESSO suite
     for quantum simulation of materials; please cite
         "P. Giannozzi et al., J. Phys.:Condens. Matter 21 395502 (2009);
         "P. Giannozzi et al., J. Phys.:Condens. Matter 29 465901 (2017);
          URL http://www.quantum-espresso.org", 
     in publications or presentations arising from this work. More details at
     http://www.quantum-espresso.org/quote

     Parallel version (MPI), running on     1 processors

     MPI processes distributed on     1 nodes
     Fft bands division:     nmany     =       1
     Waiting for input...
     Reading input from standard input

     Current dimensions of program PWSCF are:
     Max number of different atomic species (ntypx) = 10
     Max number of k-points (npk) =  40000
     Max angular momentum in pseudopotentials (lmaxx) =  3

     Atomic positions and unit cell read from directory:
     ./tmp/graphene.save/
     Atomic positions from file used, from input discarded


     Subspace diagonalization in iterative solution of the eigenvalue problem:
     a serial algorithm will be used


     G-vector sticks info
     --------------------
     sticks:   dense  smooth     PW     G-vecs:    dense   smooth      PW
     Sum         439     439    139                30493    30493    5091



     bravais-lattice index     =            4
     lattice parameter (alat)  =       4.6500  a.u.
     unit-cell volume          =     348.2968 (a.u.)^3
     number of atoms/cell      =            2
     number of atomic types    =            1
     number of electrons       =         8.00
     number of Kohn-Sham states=           10
     kinetic-energy cutoff     =      75.0000  Ry
     charge density cutoff     =     300.0000  Ry
     Exchange-correlation= PBE
                           (   1   4   3   4   0   0   0)

     celldm(1)=   4.650000  celldm(2)=   0.000000  celldm(3)=   4.000000
     celldm(4)=   0.000000  celldm(5)=   0.000000  celldm(6)=   0.000000

     crystal axes: (cart. coord. in units of alat)
               a(1) = (   1.000000   0.000000   0.000000 )  
               a(2) = (  -0.500000   0.866025   0.000000 )  
               a(3) = (   0.000000   0.000000   4.000000 )  

     reciprocal axes: (cart. coord. in units 2 pi/alat)
               b(1) = (  1.000000  0.577350 -0.000000 )  
               b(2) = (  0.000000  1.154701  0.000000 )  
               b(3) = (  0.000000 -0.000000  0.250000 )  


     PseudoPot. # 1 for C  read from file:
     ./C.UPF
     MD5 check sum: ead9220225bd72a2f9a48cc2a638047d
     Pseudo is Norm-conserving + core correction, Zval =  4.0
     Generated using ONCVPSP code by D. R. Hamann
     Using radial grid of 1248 points,  4 beta functions with: 
                l(1) =   0
                l(2) =   0
                l(3) =   1
                l(4) =   1

     atomic species   valence    mass     pseudopotential
        C              4.00    12.01070     C ( 1.00)

     24 Sym. Ops., with inversion, found (12 have fractional translation)



   Cartesian axes

     site n.     atom                  positions (alat units)
         1           C   tau(   1) = (   0.0000000   0.0000000   0.0000000  )
         2           C   tau(   2) = (   0.0000000   0.5773497   0.0000000  )

     number of k points=    61
                       cart. coord. in units 2pi/alat
        k(    1) = (   0.6666667   0.0000000  -0.1250000), wk =   0.0327869
        k(    2) = (   0.6333333  -0.0000000  -0.1187500), wk =   0.0327869
        k(    3) = (   0.6000000   0.0000000  -0.1125000), wk =   0.0327869
        k(    4) = (   0.5666667  -0.0000000  -0.1062500), wk =   0.0327869
        k(    5) = (   0.5333333  -0.0000000  -0.1000000), wk =   0.0327869
        k(    6) = (   0.5000000  -0.0000000  -0.0937500), wk =   0.0327869
        k(    7) = (   0.4666667  -0.0000000  -0.0875000), wk =   0.0327869
        k(    8) = (   0.4333333  -0.0000000  -0.0812500), wk =   0.0327869
        k(    9) = (   0.4000000  -0.0000000  -0.0750000), wk =   0.0327869
        k(   10) = (   0.3666667  -0.0000000  -0.0687500), wk =   0.0327869
        k(   11) = (   0.3333333   0.0000000  -0.0625000), wk =   0.0327869
        k(   12) = (   0.3000000   0.0000000  -0.0562500), wk =   0.0327869
        k(   13) = (   0.2666667   0.0000000  -0.0500000), wk =   0.0327869
        k(   14) = (   0.2333333  -0.0000000  -0.0437500), wk =   0.0327869
        k(   15) = (   0.2000000  -0.0000000  -0.0375000), wk =   0.0327869
        k(   16) = (   0.1666667   0.0000000  -0.0312500), wk =   0.0327869
        k(   17) = (   0.1333333   0.0000000  -0.0250000), wk =   0.0327869
        k(   18) = (   0.1000000   0.0000000  -0.0187500), wk =   0.0327869
        k(   19) = (   0.0666667   0.0000000  -0.0125000), wk =   0.0327869
        k(   20) = (   0.0333333   0.0000000  -0.0062500), wk =   0.0327869
        k(   21) = (   0.0000000   0.0000000   0.0000000), wk =   0.0327869
        k(   22) = (   0.0250000  -0.0144338  -0.0062500), wk =   0.0327869
        k(   23) = (   0.0500000  -0.0288675  -0.0125000), wk =   0.0327869
        k(   24) = (   0.0750000  -0.0433013  -0.0187500), wk =   0.0327869
        k(   25) = (   0.1000000  -0.0577350  -0.0250000), wk =   0.0327869
        k(   26) = (   0.1250000  -0.0721688  -0.0312500), wk =   0.0327869
        k(   27) = (   0.1500000  -0.0866025  -0.0375000), wk =   0.0327869
        k(   28) = (   0.1750000  -0.1010363  -0.0437500), wk =   0.0327869
        k(   29) = (   0.2000000  -0.1154701  -0.0500000), wk =   0.0327869
        k(   30) = (   0.2250000  -0.1299038  -0.0562500), wk =   0.0327869
        k(   31) = (   0.2500000  -0.1443376  -0.0625000), wk =   0.0327869
        k(   32) = (   0.2750000  -0.1587713  -0.0687500), wk =   0.0327869
        k(   33) = (   0.3000000  -0.1732051  -0.0750000), wk =   0.0327869
        k(   34) = (   0.3250000  -0.1876388  -0.0812500), wk =   0.0327869
        k(   35) = (   0.3500000  -0.2020726  -0.0875000), wk =   0.0327869
        k(   36) = (   0.3750000  -0.2165064  -0.0937500), wk =   0.0327869
        k(   37) = (   0.4000000  -0.2309401  -0.1000000), wk =   0.0327869
        k(   38) = (   0.4250000  -0.2453739  -0.1062500), wk =   0.0327869
        k(   39) = (   0.4500000  -0.2598076  -0.1125000), wk =   0.0327869
        k(   40) = (   0.4750000  -0.2742414  -0.1187500), wk =   0.0327869
        k(   41) = (   0.5000000  -0.2886751  -0.1250000), wk =   0.0327869
        k(   42) = (   0.5083333  -0.2742414  -0.1250000), wk =   0.0327869
        k(   43) = (   0.5166667  -0.2598076  -0.1250000), wk =   0.0327869
        k(   44) = (   0.5250000  -0.2453739  -0.1250000), wk =   0.0327869
        k(   45) = (   0.5333333  -0.2309401  -0.1250000), wk =   0.0327869
        k(   46) = (   0.5416667  -0.2165064  -0.1250000), wk =   0.0327869
        k(   47) = (   0.5500000  -0.2020726  -0.1250000), wk =   0.0327869
        k(   48) = (   0.5583333  -0.1876388  -0.1250000), wk =   0.0327869
        k(   49) = (   0.5666667  -0.1732051  -0.1250000), wk =   0.0327869
        k(   50) = (   0.5750000  -0.1587713  -0.1250000), wk =   0.0327869
        k(   51) = (   0.5833333  -0.1443376  -0.1250000), wk =   0.0327869
        k(   52) = (   0.5916667  -0.1299038  -0.1250000), wk =   0.0327869
        k(   53) = (   0.6000000  -0.1154701  -0.1250000), wk =   0.0327869
        k(   54) = (   0.6083333  -0.1010363  -0.1250000), wk =   0.0327869
        k(   55) = (   0.6166667  -0.0866025  -0.1250000), wk =   0.0327869
        k(   56) = (   0.6250000  -0.0721688  -0.1250000), wk =   0.0327869
        k(   57) = (   0.6333333  -0.0577350  -0.1250000), wk =   0.0327869
        k(   58) = (   0.6416667  -0.0433013  -0.1250000), wk =   0.0327869
        k(   59) = (   0.6500000  -0.0288675  -0.1250000), wk =   0.0327869
        k(   60) = (   0.6583333  -0.0144338  -0.1250000), wk =   0.0327869
        k(   61) = (   0.6666667   0.0000000  -0.1250000), wk =   0.0327869

     Dense  grid:    30493 G-vectors     FFT dimensions: (  27,  27, 108)

     Estimated max dynamical RAM per process >      13.84 MB

     The potential is recalculated from file :
     ./tmp/graphene.save/charge-density

     Starting wfcs are    8 randomized atomic wfcs +    2 random wfcs

     Band Structure Calculation
     Davidson diagonalization with overlap

     ethr =  1.25E-10,  avg # of iterations = 36.0

     total cpu time spent up to now is       22.8 secs

     End of band structure calculation

          k = 0.6667 0.0000-0.1250 (  3822 PWs)   bands (ev):

   -13.0102 -13.0102 -11.0025  -0.3650  -0.3649  10.2993  12.6120  12.6120
    13.2346  14.3059

          k = 0.6333-0.0000-0.1187 (  3829 PWs)   bands (ev):

   -13.4373 -12.6595 -10.8861  -0.8592   0.1234  10.3349  12.1858  12.7274
    13.2068  13.5157

          k = 0.6000 0.0000-0.1125 (  3803 PWs)   bands (ev):

   -13.9721 -12.2766 -10.6116  -1.3973   0.6532  10.3980  11.4459  12.6934
    12.7468  13.0881

          k = 0.5667-0.0000-0.1062 (  3814 PWs)   bands (ev):

   -14.5408 -11.8620 -10.2512  -1.9635   1.2225  10.3463  10.6282  12.0763
    12.6796  12.8173

          k = 0.5333-0.0000-0.1000 (  3817 PWs)   bands (ev):

   -15.1097 -11.4165  -9.8371  -2.5429   1.8292   9.7640  10.0385  11.8000
    12.4321  12.5499

          k = 0.5000-0.0000-0.0938 (  3811 PWs)   bands (ev):

   -15.6635 -10.9410  -9.3849  -3.1231   2.4705   8.9569   9.4587  11.6644
    11.9926  12.3808

          k = 0.4667-0.0000-0.0875 (  3815 PWs)   bands (ev):

   -16.1940 -10.4365  -8.9041  -3.6935   3.1432   8.1799   8.8208  11.3173
    11.5511  12.1883

          k = 0.4333-0.0000-0.0812 (  3816 PWs)   bands (ev):

   -16.6963  -9.9047  -8.4016  -4.2457   3.8432   7.4452   8.1955  10.7685
    11.0865  11.9818

          k = 0.4000-0.0000-0.0750 (  3828 PWs)   bands (ev):

   -17.1674  -9.3476  -7.8838  -4.7732   4.5654   6.7578   7.6072  10.1421
    10.6246  11.7660

          k = 0.3667-0.0000-0.0688 (  3827 PWs)   bands (ev):

   -17.6051  -8.7678  -7.3570  -5.2707   5.3040   6.1208   7.0650   9.5036
    10.1917  11.5418

          k = 0.3333 0.0000-0.0625 (  3835 PWs)   bands (ev):

   -18.0080  -8.1687  -6.8281  -5.7342   5.5361   6.0512   6.5726   8.8868
     9.7949  11.3063

          k = 0.3000 0.0000-0.0562 (  3828 PWs)   bands (ev):

   -18.3748  -7.5551  -6.3046  -6.1604   5.0050   6.1315   6.7981   8.3080
     9.4379  11.0535

          k = 0.2667 0.0000-0.0500 (  3836 PWs)   bands (ev):

   -18.7048  -6.9331  -6.5468  -5.7952   4.5284   5.7422   7.5335   7.7758
     9.1229  10.7730

          k = 0.2333-0.0000-0.0437 (  3847 PWs)   bands (ev):

   -18.9972  -6.8916  -6.3111  -5.3092   4.1070   5.4043   7.2953   8.2441
     8.8515  10.4520

          k = 0.2000-0.0000-0.0375 (  3845 PWs)   bands (ev):

   -19.2515  -7.1929  -5.7001  -4.8569   3.7411   5.1172   6.8702   8.6240
     8.9151  10.0790

          k = 0.1667 0.0000-0.0312 (  3856 PWs)   bands (ev):

   -19.4672  -7.4497  -5.1154  -4.4491   3.4313   4.8796   6.5036   8.4395
     9.5284   9.6546

          k = 0.1333 0.0000-0.0250 (  3851 PWs)   bands (ev):

   -19.6442  -7.6610  -4.5766  -4.0965   3.1776   4.6900   6.1980   8.2962
     9.2012  10.0660

          k = 0.1000 0.0000-0.0187 (  3834 PWs)   bands (ev):

   -19.7820  -7.8260  -4.1087  -3.8096   2.9802   4.5462   5.9563   8.1909
     8.7636  10.5090

          k = 0.0667 0.0000-0.0125 (  3831 PWs)   bands (ev):

   -19.8806  -7.9442  -3.7415  -3.5974   2.8391   4.4459   5.7810   8.1195
     8.3965  10.5567

          k = 0.0333 0.0000-0.0062 (  3815 PWs)   bands (ev):

   -19.9398  -8.0153  -3.5050  -3.4669   2.7545   4.3868   5.6747   8.0786
     8.1516  10.5300

          k = 0.0000 0.0000 0.0000 (  3807 PWs)   bands (ev):

   -19.9596  -8.0391  -3.4229  -3.4229   2.7263   4.3673   5.6390   8.0653
     8.0654  10.5218

          k = 0.0250-0.0144-0.0063 (  3809 PWs)   bands (ev):

   -19.9447  -8.0213  -3.4848  -3.4557   2.7478   4.3801   5.6681   8.0749
     8.1307  10.5237

          k = 0.0500-0.0289-0.0125 (  3825 PWs)   bands (ev):

   -19.9003  -7.9679  -3.6664  -3.5518   2.8122   4.4192   5.7545   8.0993
     8.3237  10.5316

          k = 0.0750-0.0433-0.0188 (  3836 PWs)   bands (ev):

   -19.8264  -7.8792  -3.9577  -3.7038   2.9196   4.4861   5.8967   8.1278
     8.6367  10.5498

          k = 0.1000-0.0577-0.0250 (  3845 PWs)   bands (ev):

   -19.7229  -7.7552  -4.3447  -3.9016   3.0698   4.5833   6.0921   8.1476
     9.0589  10.3134

          k = 0.1250-0.0722-0.0312 (  3855 PWs)   bands (ev):

   -19.5901  -7.5964  -4.8110  -4.1335   3.2629   4.7130   6.3378   8.1480
     9.5775   9.8922

          k = 0.1500-0.0866-0.0375 (  3849 PWs)   bands (ev):

   -19.4279  -7.4030  -5.3410  -4.3886   3.4987   4.8773   6.6310   8.1245
     9.4010  10.1796

          k = 0.1750-0.1010-0.0438 (  3853 PWs)   bands (ev):

   -19.2367  -7.1757  -5.9198  -4.6564   3.7770   5.0777   6.9677   8.0780
     8.8511  10.8525

          k = 0.2000-0.1155-0.0500 (  3852 PWs)   bands (ev):

   -19.0166  -6.9152  -6.5347  -4.9281   4.0976   5.3152   7.3385   8.0161
     8.2576  11.0152

          k = 0.2250-0.1299-0.0563 (  3850 PWs)   bands (ev):

   -18.7679  -7.1747  -6.6224  -5.1964   4.4602   5.5894   7.5559   7.7611
     8.0010  11.2066

          k = 0.2500-0.1443-0.0625 (  3848 PWs)   bands (ev):

   -18.4908  -7.8307  -6.2987  -5.4555   4.8642   5.8935   6.9441   7.7775
     8.3145  11.4359

          k = 0.2750-0.1588-0.0688 (  3832 PWs)   bands (ev):

   -18.1858  -8.4951  -5.9457  -5.7004   5.3082   6.0741   6.4369   7.6958
     8.8020  11.7046

          k = 0.3000-0.1732-0.0750 (  3832 PWs)   bands (ev):

   -17.8533  -9.1617  -5.9274  -5.5657   5.4901   5.8012   6.7134   7.6047
     9.3393  12.0143

          k = 0.3250-0.1876-0.0813 (  3823 PWs)   bands (ev):

   -17.4940  -9.8249  -6.1333  -5.1620   4.8060   6.3190   7.1398   7.5217
     9.9127  12.3664

          k = 0.3500-0.2021-0.0875 (  3825 PWs)   bands (ev):

   -17.1087 -10.4803  -6.3158  -4.7395   4.1188   6.8683   7.4255   7.6489
    10.5158  12.7624

          k = 0.3750-0.2165-0.0938 (  3822 PWs)   bands (ev):

   -16.6986 -11.1233  -6.4730  -4.3056   3.4509   7.2646   7.5670   8.1668
    11.1416  13.2036

          k = 0.4000-0.2309-0.1000 (  3816 PWs)   bands (ev):

   -16.2659 -11.7496  -6.6034  -3.8720   2.8199   7.2499   8.1560   8.7407
    11.7805  13.6841

          k = 0.4250-0.2454-0.1063 (  3816 PWs)   bands (ev):

   -15.8147 -12.3532  -6.7059  -3.4583   2.2490   7.2060   8.8183   9.3620
    12.4135  13.3282

          k = 0.4500-0.2598-0.1125 (  3811 PWs)   bands (ev):

   -15.3550 -12.9226  -6.7797  -3.0972   1.7739   7.1711   9.5145  10.0300
    12.5439  12.8807

          k = 0.4750-0.2742-0.1188 (  3811 PWs)   bands (ev):

   -14.9229 -13.4209  -6.8242  -2.8392   1.4468   7.1493  10.2368  10.7423
    11.7630  12.2881

          k = 0.5000-0.2887-0.1250 (  3808 PWs)   bands (ev):

   -14.6910 -13.6749  -6.8391  -2.7435   1.3278   7.1420  10.9067  11.0727
    11.4188  11.5861

          k = 0.5083-0.2742-0.1250 (  3804 PWs)   bands (ev):

   -14.6868 -13.6707  -6.8613  -2.7374   1.3264   7.1721  10.9123  11.0788
    11.4204  11.5929

          k = 0.5167-0.2598-0.1250 (  3804 PWs)   bands (ev):

   -14.6741 -13.6580  -6.9274  -2.7193   1.3221   7.2616  10.9292  11.0969
    11.4247  11.6134

          k = 0.5250-0.2454-0.1250 (  3820 PWs)   bands (ev):

   -14.6531 -13.6370  -7.0356  -2.6892   1.3145   7.4085  10.9572  11.1271
    11.4305  11.6475

          k = 0.5333-0.2309-0.1250 (  3816 PWs)   bands (ev):

   -14.6235 -13.6077  -7.1828  -2.6469   1.3031   7.6097  10.9963  11.1693
    11.4357  11.6952

          k = 0.5417-0.2165-0.1250 (  3810 PWs)   bands (ev):

   -14.5856 -13.5703  -7.3652  -2.5926   1.2872   7.8610  11.0463  11.2233
    11.4372  11.7565

          k = 0.5500-0.2021-0.1250 (  3804 PWs)   bands (ev):

   -14.5392 -13.5250  -7.5789  -2.5262   1.2657   8.1577  11.1070  11.2891
    11.4303  11.8315

          k = 0.5583-0.1876-0.1250 (  3798 PWs)   bands (ev):

   -14.4844 -13.4721  -7.8193  -2.4478   1.2375   8.4946  11.1782  11.3665
    11.4097  11.9201

          k = 0.5667-0.1732-0.1250 (  3802 PWs)   bands (ev):

   -14.4212 -13.4119  -8.0821  -2.3575   1.2013   8.8663  11.2593  11.3693
    11.4553  12.0223

          k = 0.5750-0.1588-0.1250 (  3794 PWs)   bands (ev):

   -14.3495 -13.3449  -8.3625  -2.2554   1.1555   9.2672  11.3047  11.3501
    11.5552  12.1381

          k = 0.5833-0.1443-0.1250 (  3786 PWs)   bands (ev):

   -14.2695 -13.2720  -8.6566  -2.1413   1.0985   9.6913  11.2144  11.4498
    11.6661  12.2675

          k = 0.5917-0.1299-0.1250 (  3786 PWs)   bands (ev):

   -14.1810 -13.1942  -8.9599  -2.0155   1.0286  10.1320  11.1016  11.5577
    11.7877  12.4104

          k = 0.6000-0.1155-0.1250 (  3790 PWs)   bands (ev):

   -14.0842 -13.1129  -9.2683  -1.8779   0.9443  10.5817  10.9736  11.6729
    11.9203  12.5670

          k = 0.6083-0.1010-0.1250 (  3790 PWs)   bands (ev):

   -13.9790 -13.0303  -9.5769  -1.7287   0.8440  10.8395  11.0305  11.7941
    12.0646  12.7371

          k = 0.6167-0.0866-0.1250 (  3802 PWs)   bands (ev):

   -13.8655 -12.9498  -9.8802  -1.5679   0.7263  10.7085  11.4638  11.9196
    12.2239  12.9207

          k = 0.6250-0.0722-0.1250 (  3806 PWs)   bands (ev):

   -13.7436 -12.8766 -10.1712  -1.3955   0.5905  10.5884  11.8574  12.0476
    12.4074  13.1179

          k = 0.6333-0.0577-0.1250 (  3810 PWs)   bands (ev):

   -13.6135 -12.8187 -10.4402  -1.2118   0.4359  10.4852  12.1745  12.1753
    12.6304  13.3286

          k = 0.6417-0.0433-0.1250 (  3810 PWs)   bands (ev):

   -13.4750 -12.7883 -10.6737  -1.0167   0.2625  10.4031  12.2997  12.3971
    12.8794  13.5528

          k = 0.6500-0.0289-0.1250 (  3816 PWs)   bands (ev):

   -13.3283 -12.8014 -10.8545  -0.8104   0.0705  10.3446  12.4168  12.5462
    13.0900  13.7904

          k = 0.6583-0.0144-0.1250 (  3838 PWs)   bands (ev):

   -13.1734 -12.8735 -10.9663  -0.5932  -0.1391  10.3103  12.5223  12.6278
    13.2073  14.0415

          k = 0.6667 0.0000-0.1250 (  3822 PWs)   bands (ev):

   -13.0102 -13.0102 -11.0025  -0.3650  -0.3649  10.2993  12.6120  12.6120
    13.2346  14.3059

     Writing output data file ./tmp/graphene.save/

     init_run     :      0.20s CPU      0.12s WALL (       1 calls)
     electrons    :    181.88s CPU     22.52s WALL (       1 calls)

     Called by init_run:
     wfcinit      :      0.00s CPU      0.00s WALL (       1 calls)
     potinit      :      0.03s CPU      0.02s WALL (       1 calls)
     hinit0       :      0.10s CPU      0.05s WALL (       1 calls)

     Called by electrons:
     c_bands      :    181.88s CPU     22.52s WALL (       1 calls)
     v_of_rho     :      0.03s CPU      0.02s WALL (       1 calls)

     Called by c_bands:
     init_us_2    :      0.23s CPU      0.02s WALL (      61 calls)
     cegterg      :    174.07s CPU     21.45s WALL (     139 calls)

     Called by *egterg:
     cdiaghg      :      1.65s CPU      0.25s WALL (    2258 calls)
     h_psi        :    156.23s CPU     19.38s WALL (    2397 calls)
     g_psi        :      1.22s CPU      0.17s WALL (    2197 calls)

     Called by h_psi:
     h_psi:calbec :      9.83s CPU      1.11s WALL (    2397 calls)
     vloc_psi     :    140.27s CPU     17.49s WALL (    2397 calls)
     add_vuspsi   :      5.64s CPU      0.71s WALL (    2397 calls)

     General routines
     calbec       :      9.73s CPU      1.10s WALL (    2397 calls)
     fft          :      0.02s CPU      0.01s WALL (      11 calls)
     fftw         :    123.15s CPU     15.36s WALL (   28124 calls)
     davcio       :      0.07s CPU      0.01s WALL (     122 calls)

     Parallel routines

     PWSCF        :   3m 2.47s CPU     22.86s WALL


   This run was terminated on:  23:41:26  19Dec2023            

=------------------------------------------------------------------------------=
   JOB DONE.
=------------------------------------------------------------------------------=
