
     Program PWSCF v.6.6 starts on  7Jan2024 at 11:33: 4 

     This program is part of the open-source Quantum ESPRESSO suite
     for quantum simulation of materials; please cite
         "P. Giannozzi et al., J. Phys.:Condens. Matter 21 395502 (2009);
         "P. Giannozzi et al., J. Phys.:Condens. Matter 29 465901 (2017);
          URL http://www.quantum-espresso.org", 
     in publications or presentations arising from this work. More details at
     http://www.quantum-espresso.org/quote

     Parallel version (MPI), running on     1 processors

     MPI processes distributed on     1 nodes
     Fft bands division:     nmany     =       1
     Waiting for input...
     Reading input from standard input

     Current dimensions of program PWSCF are:
     Max number of different atomic species (ntypx) = 10
     Max number of k-points (npk) =  40000
     Max angular momentum in pseudopotentials (lmaxx) =  3

     Atomic positions and unit cell read from directory:
     ./tmp/graphene.save/
     Atomic positions from file used, from input discarded


     Subspace diagonalization in iterative solution of the eigenvalue problem:
     a serial algorithm will be used


     G-vector sticks info
     --------------------
     sticks:   dense  smooth     PW     G-vecs:    dense   smooth      PW
     Sum         439     439    139                30493    30493    5091



     bravais-lattice index     =            4
     lattice parameter (alat)  =       4.6500  a.u.
     unit-cell volume          =     348.2968 (a.u.)^3
     number of atoms/cell      =            2
     number of atomic types    =            1
     number of electrons       =         8.00
     number of Kohn-Sham states=           12
     kinetic-energy cutoff     =      75.0000  Ry
     charge density cutoff     =     300.0000  Ry
     Exchange-correlation= PBE
                           (   1   4   3   4   0   0   0)

     celldm(1)=   4.650000  celldm(2)=   0.000000  celldm(3)=  10.000000
     celldm(4)=   0.000000  celldm(5)=   0.000000  celldm(6)=   0.000000

     crystal axes: (cart. coord. in units of alat)
               a(1) = (   1.000000   0.000000   0.000000 )  
               a(2) = (  -0.500000   0.866025   0.000000 )  
               a(3) = (   0.000000   0.000000   4.000000 )  

     reciprocal axes: (cart. coord. in units 2 pi/alat)
               b(1) = (  1.000000  0.577350 -0.000000 )  
               b(2) = (  0.000000  1.154701  0.000000 )  
               b(3) = (  0.000000 -0.000000  0.250000 )  


     PseudoPot. # 1 for C  read from file:
     ./C.UPF
     MD5 check sum: ead9220225bd72a2f9a48cc2a638047d
     Pseudo is Norm-conserving + core correction, Zval =  4.0
     Generated using ONCVPSP code by D. R. Hamann
     Using radial grid of 1248 points,  4 beta functions with: 
                l(1) =   0
                l(2) =   0
                l(3) =   1
                l(4) =   1

     atomic species   valence    mass     pseudopotential
        C              4.00    12.01070     C ( 1.00)

     24 Sym. Ops., with inversion, found (12 have fractional translation)



   Cartesian axes

     site n.     atom                  positions (alat units)
         1           C   tau(   1) = (   0.0000000   0.0000000   0.0000000  )
         2           C   tau(   2) = (   0.0000000   0.5773497   0.0000000  )

     number of k points=    98
                       cart. coord. in units 2pi/alat
        k(    1) = (   0.5000000  -0.2886751   0.0000000), wk =   0.0204082
        k(    2) = (   0.4864865  -0.2808731   0.0000000), wk =   0.0204082
        k(    3) = (   0.4729730  -0.2730711   0.0000000), wk =   0.0204082
        k(    4) = (   0.4594595  -0.2652690   0.0000000), wk =   0.0204082
        k(    5) = (   0.4459459  -0.2574670   0.0000000), wk =   0.0204082
        k(    6) = (   0.4324324  -0.2496650   0.0000000), wk =   0.0204082
        k(    7) = (   0.4189189  -0.2418630   0.0000000), wk =   0.0204082
        k(    8) = (   0.4054054  -0.2340609   0.0000000), wk =   0.0204082
        k(    9) = (   0.3918919  -0.2262589   0.0000000), wk =   0.0204082
        k(   10) = (   0.3783784  -0.2184569   0.0000000), wk =   0.0204082
        k(   11) = (   0.3648649  -0.2106548   0.0000000), wk =   0.0204082
        k(   12) = (   0.3513514  -0.2028528   0.0000000), wk =   0.0204082
        k(   13) = (   0.3378378  -0.1950508   0.0000000), wk =   0.0204082
        k(   14) = (   0.3243243  -0.1872487   0.0000000), wk =   0.0204082
        k(   15) = (   0.3108108  -0.1794467   0.0000000), wk =   0.0204082
        k(   16) = (   0.2972973  -0.1716447   0.0000000), wk =   0.0204082
        k(   17) = (   0.2837838  -0.1638426   0.0000000), wk =   0.0204082
        k(   18) = (   0.2702703  -0.1560406   0.0000000), wk =   0.0204082
        k(   19) = (   0.2567568  -0.1482386   0.0000000), wk =   0.0204082
        k(   20) = (   0.2432432  -0.1404366   0.0000000), wk =   0.0204082
        k(   21) = (   0.2297297  -0.1326345   0.0000000), wk =   0.0204082
        k(   22) = (   0.2162162  -0.1248325   0.0000000), wk =   0.0204082
        k(   23) = (   0.2027027  -0.1170305   0.0000000), wk =   0.0204082
        k(   24) = (   0.1891892  -0.1092284   0.0000000), wk =   0.0204082
        k(   25) = (   0.1756757  -0.1014264   0.0000000), wk =   0.0204082
        k(   26) = (   0.1621622  -0.0936244   0.0000000), wk =   0.0204082
        k(   27) = (   0.1486486  -0.0858223   0.0000000), wk =   0.0204082
        k(   28) = (   0.1351351  -0.0780203   0.0000000), wk =   0.0204082
        k(   29) = (   0.1216216  -0.0702183   0.0000000), wk =   0.0204082
        k(   30) = (   0.1081081  -0.0624162   0.0000000), wk =   0.0204082
        k(   31) = (   0.0945946  -0.0546142   0.0000000), wk =   0.0204082
        k(   32) = (   0.0810811  -0.0468122   0.0000000), wk =   0.0204082
        k(   33) = (   0.0675676  -0.0390102   0.0000000), wk =   0.0204082
        k(   34) = (   0.0540541  -0.0312081   0.0000000), wk =   0.0204082
        k(   35) = (   0.0405405  -0.0234061   0.0000000), wk =   0.0204082
        k(   36) = (   0.0270270  -0.0156041   0.0000000), wk =   0.0204082
        k(   37) = (   0.0135135  -0.0078020   0.0000000), wk =   0.0204082
        k(   38) = (   0.0000000   0.0000000   0.0000000), wk =   0.0204082
        k(   39) = (   0.0166667  -0.0000000   0.0000000), wk =   0.0204082
        k(   40) = (   0.0333333  -0.0000000   0.0000000), wk =   0.0204082
        k(   41) = (   0.0500000  -0.0000000   0.0000000), wk =   0.0204082
        k(   42) = (   0.0666667  -0.0000000   0.0000000), wk =   0.0204082
        k(   43) = (   0.0833333   0.0000000   0.0000000), wk =   0.0204082
        k(   44) = (   0.1000000  -0.0000000   0.0000000), wk =   0.0204082
        k(   45) = (   0.1166667   0.0000000   0.0000000), wk =   0.0204082
        k(   46) = (   0.1333333  -0.0000000   0.0000000), wk =   0.0204082
        k(   47) = (   0.1500000   0.0000000   0.0000000), wk =   0.0204082
        k(   48) = (   0.1666667   0.0000000   0.0000000), wk =   0.0204082
        k(   49) = (   0.1833333   0.0000000   0.0000000), wk =   0.0204082
        k(   50) = (   0.2000000  -0.0000000   0.0000000), wk =   0.0204082
        k(   51) = (   0.2166667   0.0000000   0.0000000), wk =   0.0204082
        k(   52) = (   0.2333333   0.0000000   0.0000000), wk =   0.0204082
        k(   53) = (   0.2500000  -0.0000000   0.0000000), wk =   0.0204082
        k(   54) = (   0.2666667  -0.0000000   0.0000000), wk =   0.0204082
        k(   55) = (   0.2833333   0.0000000   0.0000000), wk =   0.0204082
        k(   56) = (   0.3000000   0.0000000   0.0000000), wk =   0.0204082
        k(   57) = (   0.3166667  -0.0000000   0.0000000), wk =   0.0204082
        k(   58) = (   0.3333333   0.0000000   0.0000000), wk =   0.0204082
        k(   59) = (   0.3500000  -0.0000000   0.0000000), wk =   0.0204082
        k(   60) = (   0.3666667   0.0000000   0.0000000), wk =   0.0204082
        k(   61) = (   0.3833333  -0.0000000   0.0000000), wk =   0.0204082
        k(   62) = (   0.4000000  -0.0000000   0.0000000), wk =   0.0204082
        k(   63) = (   0.4166667   0.0000000   0.0000000), wk =   0.0204082
        k(   64) = (   0.4333333   0.0000000   0.0000000), wk =   0.0204082
        k(   65) = (   0.4500000   0.0000000   0.0000000), wk =   0.0204082
        k(   66) = (   0.4666667   0.0000000   0.0000000), wk =   0.0204082
        k(   67) = (   0.4833333  -0.0000000   0.0000000), wk =   0.0204082
        k(   68) = (   0.5000000  -0.0000000   0.0000000), wk =   0.0204082
        k(   69) = (   0.5166667  -0.0000000   0.0000000), wk =   0.0204082
        k(   70) = (   0.5333333  -0.0000000   0.0000000), wk =   0.0204082
        k(   71) = (   0.5500000   0.0000000   0.0000000), wk =   0.0204082
        k(   72) = (   0.5666667   0.0000000   0.0000000), wk =   0.0204082
        k(   73) = (   0.5833333  -0.0000000   0.0000000), wk =   0.0204082
        k(   74) = (   0.6000000   0.0000000   0.0000000), wk =   0.0204082
        k(   75) = (   0.6166667   0.0000000   0.0000000), wk =   0.0204082
        k(   76) = (   0.6333333  -0.0000000   0.0000000), wk =   0.0204082
        k(   77) = (   0.6500000  -0.0000000   0.0000000), wk =   0.0204082
        k(   78) = (   0.6666667   0.0000000   0.0000000), wk =   0.0204082
        k(   79) = (   0.6583333  -0.0144338   0.0000000), wk =   0.0204082
        k(   80) = (   0.6500000  -0.0288675   0.0000000), wk =   0.0204082
        k(   81) = (   0.6416667  -0.0433013   0.0000000), wk =   0.0204082
        k(   82) = (   0.6333333  -0.0577350   0.0000000), wk =   0.0204082
        k(   83) = (   0.6250000  -0.0721688   0.0000000), wk =   0.0204082
        k(   84) = (   0.6166667  -0.0866025   0.0000000), wk =   0.0204082
        k(   85) = (   0.6083333  -0.1010363   0.0000000), wk =   0.0204082
        k(   86) = (   0.6000000  -0.1154701   0.0000000), wk =   0.0204082
        k(   87) = (   0.5916667  -0.1299038   0.0000000), wk =   0.0204082
        k(   88) = (   0.5833333  -0.1443376   0.0000000), wk =   0.0204082
        k(   89) = (   0.5750000  -0.1587713   0.0000000), wk =   0.0204082
        k(   90) = (   0.5666667  -0.1732051   0.0000000), wk =   0.0204082
        k(   91) = (   0.5583333  -0.1876388   0.0000000), wk =   0.0204082
        k(   92) = (   0.5500000  -0.2020726   0.0000000), wk =   0.0204082
        k(   93) = (   0.5416667  -0.2165064   0.0000000), wk =   0.0204082
        k(   94) = (   0.5333333  -0.2309401   0.0000000), wk =   0.0204082
        k(   95) = (   0.5250000  -0.2453739   0.0000000), wk =   0.0204082
        k(   96) = (   0.5166667  -0.2598076   0.0000000), wk =   0.0204082
        k(   97) = (   0.5083333  -0.2742414   0.0000000), wk =   0.0204082
        k(   98) = (   0.5000000  -0.2886751   0.0000000), wk =   0.0204082

     Dense  grid:    30493 G-vectors     FFT dimensions: (  27,  27, 108)

     Estimated max dynamical RAM per process >      14.43 MB

     The potential is recalculated from file :
     ./tmp/graphene.save/charge-density

     Starting wfcs are    8 randomized atomic wfcs +    4 random wfcs

     Band Structure Calculation
     Davidson diagonalization with overlap

     ethr =  1.25E-11,  avg # of iterations = 48.6

     total cpu time spent up to now is       52.8 secs

     End of band structure calculation

          k = 0.5000-0.2887 0.0000 (  3818 PWs)   bands (ev):

   -14.6910 -13.6750  -6.8390  -2.7435   1.3279   7.1420  10.6599  10.7949
    11.9523  12.3691  13.5145  13.5957

          k = 0.4865-0.2809 0.0000 (  3810 PWs)   bands (ev):

   -14.7693 -13.5902  -6.8346  -2.7720   1.3632   7.1441  10.3066  11.1567
    11.7199  12.6048  13.1456  13.9722

          k = 0.4730-0.2731 0.0000 (  3812 PWs)   bands (ev):

   -14.9547 -13.3855  -6.8216  -2.8548   1.4663   7.1506   9.9032  11.3612
    11.5851  12.7479  12.9726  14.3924

          k = 0.4595-0.2653 0.0000 (  3808 PWs)   bands (ev):

   -15.1843 -13.1235  -6.7999  -2.9842   1.6294   7.1612   9.5078  10.9933
    12.0178  12.3626  13.3523  14.8177

          k = 0.4459-0.2575 0.0000 (  3811 PWs)   bands (ev):

   -15.4292 -12.8335  -6.7697  -3.1503   1.8425   7.1759   9.1225  10.6284
    11.9699  12.4726  13.7240  15.2451

          k = 0.4324-0.2497 0.0000 (  3809 PWs)   bands (ev):

   -15.6781 -12.5269  -6.7309  -3.3435   2.0959   7.1943   8.7478  10.2701
    11.6019  12.9151  14.0679  15.6712

          k = 0.4189-0.2419 0.0000 (  3809 PWs)   bands (ev):

   -15.9258 -12.2089  -6.6836  -3.5556   2.3808   7.2158   8.3848   9.9197
    11.2419  13.3589  14.3449  15.6714

          k = 0.4054-0.2341 0.0000 (  3805 PWs)   bands (ev):

   -16.1697 -11.8822  -6.6280  -3.7799   2.6905   7.2388   8.0350   9.5781
    10.8920  13.7967  14.4885  15.7165

          k = 0.3919-0.2263 0.0000 (  3813 PWs)   bands (ev):

   -16.4086 -11.5486  -6.5642  -4.0115   3.0194   7.2570   7.7046   9.2460
    10.5528  14.2200  14.4672  15.9129

          k = 0.3784-0.2185 0.0000 (  3813 PWs)   bands (ev):

   -16.6414 -11.2090  -6.4922  -4.2466   3.3633   7.2208   7.4434   8.9238
    10.2246  14.3353  14.6165  16.2078

          k = 0.3649-0.2107 0.0000 (  3809 PWs)   bands (ev):

   -16.8677 -10.8643  -6.4124  -4.4822   3.7185   6.9877   7.3936   8.6119
     9.9076  14.1505  14.9685  16.4649

          k = 0.3514-0.2029 0.0000 (  3821 PWs)   bands (ev):

   -17.0871 -10.5154  -6.3249  -4.7162   4.0823   6.6929   7.4196   8.3106
     9.6021  13.9423  15.2524  16.1918

          k = 0.3378-0.1951 0.0000 (  3821 PWs)   bands (ev):

   -17.2993 -10.1627  -6.2300  -4.9470   4.4523   6.3995   7.4581   8.0204
     9.3083  13.7241  15.4413  15.9337

          k = 0.3243-0.1872 0.0000 (  3829 PWs)   bands (ev):

   -17.5040  -9.8071  -6.1280  -5.1731   4.8259   6.1147   7.5010   7.7418
     9.0266  13.5028  15.4921  15.7169

          k = 0.3108-0.1794 0.0000 (  3837 PWs)   bands (ev):

   -17.7012  -9.4492  -6.0192  -5.3937   5.2007   5.8403   7.4757   7.5457
     8.7578  13.2823  15.2548  15.3416

          k = 0.2973-0.1716 0.0000 (  3841 PWs)   bands (ev):

   -17.8906  -9.0897  -5.9038  -5.6079   5.5731   5.5769   7.2240   7.5898
     8.5033  13.0652  14.7903  15.1174

          k = 0.2838-0.1638 0.0000 (  3849 PWs)   bands (ev):

   -18.0721  -8.7294  -5.8151  -5.7824   5.3247   5.9356   6.9928   7.6287
     8.2670  12.8531  14.3263  14.8892

          k = 0.2703-0.1560 0.0000 (  3843 PWs)   bands (ev):

   -18.2456  -8.3691  -6.0146  -5.6554   5.0840   6.2564   6.8125   7.6491
     8.0615  12.6473  13.8651  14.6672

          k = 0.2568-0.1482 0.0000 (  3839 PWs)   bands (ev):

   -18.4111  -8.0097  -6.2060  -5.5232   4.8547   6.3580   6.8590   7.6074
     7.9297  12.4488  13.4085  14.4538

          k = 0.2432-0.1404 0.0000 (  3843 PWs)   bands (ev):

   -18.5685  -7.6523  -6.3891  -5.3866   4.6370   6.2148   7.1566   7.4699
     7.9046  12.2582  12.9586  14.2501

          k = 0.2297-0.1326 0.0000 (  3847 PWs)   bands (ev):

   -18.7176  -7.2978  -6.5635  -5.2462   4.4310   6.0312   7.2930   7.4993
     7.9290  12.0761  12.5172  14.0564

          k = 0.2162-0.1248 0.0000 (  3849 PWs)   bands (ev):

   -18.8585  -6.9475  -6.7289  -5.1029   4.2366   5.8479   7.1124   7.8451
     7.9663  11.9029  12.0861  13.8730

          k = 0.2027-0.1170 0.0000 (  3851 PWs)   bands (ev):

   -18.9911  -6.8851  -6.6027  -4.9574   4.0539   5.6721   6.9380   8.0057
     8.1851  11.6670  11.7390  13.7000

          k = 0.1892-0.1092 0.0000 (  3849 PWs)   bands (ev):

   -19.1153  -7.0319  -6.2651  -4.8106   3.8829   5.5060   6.7726   8.0433
     8.5159  11.2616  11.5848  13.5377

          k = 0.1757-0.1014 0.0000 (  3855 PWs)   bands (ev):

   -19.2312  -7.1691  -5.9360  -4.6637   3.7237   5.3505   6.6176   8.0770
     8.8347  10.8716  11.4404  13.3861

          k = 0.1622-0.0936 0.0000 (  3859 PWs)   bands (ev):

   -19.3386  -7.2966  -5.6172  -4.5179   3.5762   5.2059   6.4735   8.1054
     9.1397  10.4988  11.3060  13.2452

          k = 0.1486-0.0858 0.0000 (  3863 PWs)   bands (ev):

   -19.4375  -7.4143  -5.3110  -4.3744   3.4405   5.0725   6.3406   8.1273
     9.4290  10.1450  11.1819  13.1151

          k = 0.1351-0.0780 0.0000 (  3859 PWs)   bands (ev):

   -19.5279  -7.5221  -5.0191  -4.2348   3.3166   4.9505   6.2190   8.1423
     9.7010   9.8122  11.0683  12.9956

          k = 0.1216-0.0702 0.0000 (  3851 PWs)   bands (ev):

   -19.6097  -7.6198  -4.7439  -4.1006   3.2044   4.8400   6.1089   8.1501
     9.5023   9.9537  10.9651  12.8862

          k = 0.1081-0.0624 0.0000 (  3857 PWs)   bands (ev):

   -19.6830  -7.7075  -4.4881  -3.9736   3.1041   4.7410   6.0103   8.1507
     9.2172  10.1855  10.8726  12.7849

          k = 0.0946-0.0546 0.0000 (  3839 PWs)   bands (ev):

   -19.7478  -7.7850  -4.2537  -3.8554   3.0155   4.6535   5.9232   8.1451
     8.9590  10.3950  10.7908  12.6840

          k = 0.0811-0.0468 0.0000 (  3831 PWs)   bands (ev):

   -19.8039  -7.8523  -4.0436  -3.7480   2.9388   4.5777   5.8478   8.1342
     8.7298  10.5798  10.7202  12.5831

          k = 0.0676-0.0390 0.0000 (  3835 PWs)   bands (ev):

   -19.8515  -7.9093  -3.8604  -3.6533   2.8739   4.5134   5.7840   8.1198
     8.5316  10.6580  10.7415  12.4951

          k = 0.0541-0.0312 0.0000 (  3827 PWs)   bands (ev):

   -19.8904  -7.9559  -3.7065  -3.5728   2.8207   4.4609   5.7318   8.1040
     8.3665  10.6095  10.8733  12.4238

          k = 0.0405-0.0234 0.0000 (  3825 PWs)   bands (ev):

   -19.9206  -7.9923  -3.5842  -3.5084   2.7794   4.4200   5.6912   8.0889
     8.2360  10.5712  10.9779  12.3693

          k = 0.0270-0.0156 0.0000 (  3815 PWs)   bands (ev):

   -19.9423  -8.0183  -3.4951  -3.4613   2.7499   4.3907   5.6622   8.0765
     8.1416  10.5438  11.0533  12.3311

          k = 0.0135-0.0078 0.0000 (  3799 PWs)   bands (ev):

   -19.9552  -8.0338  -3.4410  -3.4325   2.7322   4.3732   5.6448   8.0683
     8.0845  10.5273  11.0989  12.3085

          k = 0.0000 0.0000 0.0000 (  3807 PWs)   bands (ev):

   -19.9596  -8.0391  -3.4229  -3.4229   2.7263   4.3673   5.6390   8.0653
     8.0654  10.5218  11.1141  12.3010

          k = 0.0167-0.0000 0.0000 (  3799 PWs)   bands (ev):

   -19.9546  -8.0331  -3.4435  -3.4339   2.7331   4.3740   5.6456   8.0688
     8.0872  10.5281  11.0968  12.3096

          k = 0.0333-0.0000 0.0000 (  3815 PWs)   bands (ev):

   -19.9398  -8.0153  -3.5050  -3.4670   2.7533   4.3940   5.6655   8.0786
     8.1516  10.5469  11.0448  12.3354

          k = 0.0500-0.0000 0.0000 (  3823 PWs)   bands (ev):

   -19.9151  -7.9857  -3.6052  -3.5216   2.7869   4.4274   5.6985   8.0955
     8.2561  10.5782  10.9588  12.3793

          k = 0.0667-0.0000 0.0000 (  3839 PWs)   bands (ev):

   -19.8806  -7.9443  -3.7415  -3.5975   2.8340   4.4740   5.7449   8.1195
     8.3965  10.6219  10.8397  12.4423

          k = 0.0833 0.0000 0.0000 (  3843 PWs)   bands (ev):

   -19.8362  -7.8910  -3.9107  -3.6937   2.8947   4.5340   5.8044   8.1513
     8.5678  10.6780  10.6893  12.5262

          k = 0.1000-0.0000 0.0000 (  3843 PWs)   bands (ev):

   -19.7820  -7.8260  -4.1088  -3.8096   2.9687   4.6073   5.8773   8.1909
     8.7636  10.5089  10.7464  12.6332

          k = 0.1167 0.0000 0.0000 (  3847 PWs)   bands (ev):

   -19.7180  -7.7493  -4.3321  -3.9442   3.0563   4.6938   5.9634   8.2393
     8.9771  10.3004  10.8270  12.7543

          k = 0.1333-0.0000 0.0000 (  3855 PWs)   bands (ev):

   -19.6442  -7.6610  -4.5766  -4.0965   3.1573   4.7935   6.0629   8.2966
     9.2012  10.0660  10.9196  12.8531

          k = 0.1500 0.0000 0.0000 (  3849 PWs)   bands (ev):

   -19.5606  -7.5611  -4.8388  -4.2652   3.2718   4.9065   6.1756   8.3636
     9.4291   9.8080  11.0241  12.9647

          k = 0.1667 0.0000 0.0000 (  3847 PWs)   bands (ev):

   -19.4672  -7.4497  -5.1154  -4.4490   3.3998   5.0326   6.3017   8.4406
     9.5285   9.6546  11.1402  13.0889

          k = 0.1833 0.0000 0.0000 (  3843 PWs)   bands (ev):

   -19.3642  -7.3270  -5.4033  -4.6467   3.5413   5.1718   6.4412   8.5279
     9.2300   9.8725  11.2676  13.2258

          k = 0.2000-0.0000 0.0000 (  3843 PWs)   bands (ev):

   -19.2515  -7.1929  -5.7001  -4.8569   3.6962   5.3241   6.5939   8.6257
     8.9151  10.0791  11.4059  13.3752

          k = 0.2167 0.0000 0.0000 (  3857 PWs)   bands (ev):

   -19.1291  -7.0478  -6.0034  -5.0782   3.8645   5.4893   6.7600   8.5857
     8.7344  10.2723  11.5547  13.5369

          k = 0.2333 0.0000 0.0000 (  3859 PWs)   bands (ev):

   -18.9972  -6.8916  -6.3111  -5.3093   4.0463   5.6674   6.9393   8.2441
     8.8540  10.4519  11.7132  13.7110

          k = 0.2500-0.0000 0.0000 (  3851 PWs)   bands (ev):

   -18.8557  -6.7245  -6.6215  -5.5487   4.2415   5.8582   7.1320   7.8927
     8.9847  10.6184  11.8806  13.8973

          k = 0.2667-0.0000 0.0000 (  3841 PWs)   bands (ev):

   -18.7048  -6.9331  -6.5468  -5.7952   4.4501   6.0616   7.3379   7.5334
     9.1263  10.7730  12.0559  14.0957

          k = 0.2833 0.0000 0.0000 (  3841 PWs)   bands (ev):

   -18.5445  -7.2447  -6.3587  -6.0476   4.6720   6.2775   7.1679   7.5570
     9.2788  10.9174  12.2372  14.3060

          k = 0.3000 0.0000 0.0000 (  3835 PWs)   bands (ev):

   -18.3748  -7.5551  -6.3047  -6.1604   4.9073   6.5057   6.7981   7.7893
     9.4419  11.0534  12.4226  14.5280

          k = 0.3167-0.0000 0.0000 (  3831 PWs)   bands (ev):

   -18.1960  -7.8634  -6.5652  -5.9521   5.1559   6.4254   6.7457   8.0347
     9.6155  11.1826  12.6088  14.7615

          k = 0.3333 0.0000 0.0000 (  3831 PWs)   bands (ev):

   -18.0080  -8.1687  -6.8281  -5.7342   5.4177   6.0512   6.9974   8.2931
     9.7992  11.3064  12.7913  15.0064

          k = 0.3500-0.0000 0.0000 (  3825 PWs)   bands (ev):

   -17.8110  -8.4704  -7.0924  -5.5069   5.6771   5.6927   7.2603   8.5643
     9.9928  11.4258  12.9636  15.2620

          k = 0.3667 0.0000 0.0000 (  3827 PWs)   bands (ev):

   -17.6051  -8.7678  -7.3571  -5.2707   5.3040   5.9808   7.5337   8.8483
    10.1956  11.5418  13.1163  15.5281

          k = 0.3833-0.0000 0.0000 (  3827 PWs)   bands (ev):

   -17.3905  -9.0603  -7.6212  -5.0260   4.9331   6.2820   7.8170   9.1449
    10.4073  11.6551  13.2370  15.8040

          k = 0.4000-0.0000 0.0000 (  3821 PWs)   bands (ev):

   -17.1674  -9.3476  -7.8838  -4.7732   4.5655   6.5961   8.1090   9.4537
    10.6271  11.7660  13.3112  16.0886

          k = 0.4167 0.0000 0.0000 (  3814 PWs)   bands (ev):

   -16.9359  -9.6292  -8.1442  -4.5129   4.2019   6.9231   8.4082   9.7745
    10.8543  11.8749  13.3273  16.2667

          k = 0.4333 0.0000 0.0000 (  3810 PWs)   bands (ev):

   -16.6963  -9.9047  -8.4016  -4.2457   3.8432   7.2627   8.7124  10.1067
    11.0882  11.9818  13.2830  16.2738

          k = 0.4500 0.0000 0.0000 (  3796 PWs)   bands (ev):

   -16.4488 -10.1739  -8.6551  -3.9722   3.4902   7.6148   9.0186  10.4495
    11.3278  12.0864  13.1893  16.3638

          k = 0.4667 0.0000 0.0000 (  3804 PWs)   bands (ev):

   -16.1939 -10.4365  -8.9041  -3.6934   3.1433   7.9792   9.3217  10.8018
    11.5723  12.1881  13.0669  16.5195

          k = 0.4833-0.0000 0.0000 (  3806 PWs)   bands (ev):

   -15.9320 -10.6923  -9.1476  -3.4100   2.8032   8.3554   9.6146  11.1611
    11.8214  12.2864  12.9399  16.7206

          k = 0.5000-0.0000 0.0000 (  3798 PWs)   bands (ev):

   -15.6635 -10.9410  -9.3848  -3.1230   2.4706   8.7431   9.8862  11.5233
    12.0761  12.3803  12.8333  16.9471

          k = 0.5167-0.0000 0.0000 (  3806 PWs)   bands (ev):

   -15.3891 -11.1824  -9.6150  -2.8336   2.1457   9.1416  10.1212  11.8793
    12.3407  12.4682  12.7726  16.9167

          k = 0.5333-0.0000 0.0000 (  3802 PWs)   bands (ev):

   -15.1097 -11.4165  -9.8370  -2.5429   1.8292   9.5501  10.3018  12.2109
    12.5483  12.6278  12.7826  16.6034

          k = 0.5500 0.0000 0.0000 (  3790 PWs)   bands (ev):

   -14.8264 -11.6431 -10.0495  -2.2523   1.5214   9.9672  10.4154  12.4945
    12.6181  12.8810  12.9529  16.3071

          k = 0.5667 0.0000 0.0000 (  3788 PWs)   bands (ev):

   -14.5407 -11.8620 -10.2511  -1.9633   1.2226  10.3911  10.4632  12.6746
    12.7210  13.0697  13.3148  16.0317

          k = 0.5833-0.0000 0.0000 (  3794 PWs)   bands (ev):

   -14.2549 -12.0732 -10.4395  -1.6777   0.9331  10.4609  10.8186  12.7141
    12.8947  13.3346  13.6944  15.7807

          k = 0.6000 0.0000 0.0000 (  3786 PWs)   bands (ev):

   -13.9721 -12.2766 -10.6116  -1.3971   0.6533  10.4294  11.2443  12.7329
    13.0176  13.6550  14.0701  15.5572

          k = 0.6167 0.0000 0.0000 (  3784 PWs)   bands (ev):

   -13.6972 -12.4720 -10.7627  -1.1235   0.3834  10.3869  11.6588  12.7272
    13.0890  14.0102  14.4138  15.3633

          k = 0.6333-0.0000 0.0000 (  3792 PWs)   bands (ev):

   -13.4373 -12.6595 -10.8860  -0.8590   0.1236  10.3469  12.0437  12.6943
    13.1129  14.3798  14.6836  15.1996

          k = 0.6500-0.0000 0.0000 (  3780 PWs)   bands (ev):

   -13.2033 -12.8389 -10.9707  -0.6053  -0.1258  10.3185  12.3618  12.6339
    13.1058  14.7388  14.8481  15.0642

          k = 0.6667 0.0000 0.0000 (  3780 PWs)   bands (ev):

   -13.0102 -13.0102 -11.0025  -0.3647  -0.3647  10.3080  12.5475  12.5475
    13.0993  14.9519  14.9519  15.0479

          k = 0.6583-0.0144 0.0000 (  3776 PWs)   bands (ev):

   -13.1733 -12.8735 -10.9662  -0.5929  -0.1388  10.3195  12.4394  12.5638
    13.0852  14.7881  14.8559  15.0705

          k = 0.6500-0.0289 0.0000 (  3788 PWs)   bands (ev):

   -13.3283 -12.8014 -10.8545  -0.8102   0.0707  10.3555  12.3147  12.4692
    12.9826  14.5414  14.7683  15.1628

          k = 0.6417-0.0433 0.0000 (  3794 PWs)   bands (ev):

   -13.4750 -12.7883 -10.6737  -1.0164   0.2626  10.4167  12.1791  12.3186
    12.7669  14.3077  14.6828  15.1091

          k = 0.6333-0.0577 0.0000 (  3796 PWs)   bands (ev):

   -13.6135 -12.8187 -10.4402  -1.2116   0.4361  10.5029  12.0374  12.1197
    12.4844  14.0871  14.5948  14.9824

          k = 0.6250-0.0722 0.0000 (  3792 PWs)   bands (ev):

   -13.7436 -12.8766 -10.1712  -1.3954   0.5907  10.6122  11.8374  11.8938
    12.2166  13.8796  14.5024  14.8394

          k = 0.6167-0.0866 0.0000 (  3794 PWs)   bands (ev):

   -13.8655 -12.9498  -9.8802  -1.5677   0.7264  10.7413  11.4587  11.7516
    12.0083  13.6854  14.4059  14.6954

          k = 0.6083-0.1010 0.0000 (  3796 PWs)   bands (ev):

   -13.9790 -13.0303  -9.5769  -1.7286   0.8439  10.8857  11.0291  11.6133
    11.8362  13.5045  14.3069  14.5553

          k = 0.6000-0.1155 0.0000 (  3798 PWs)   bands (ev):

   -14.0842 -13.1129  -9.2683  -1.8779   0.9442  10.5812  11.0394  11.4809
    11.6828  13.3368  14.2073  14.4215

          k = 0.5917-0.1299 0.0000 (  3800 PWs)   bands (ev):

   -14.1810 -13.1942  -8.9600  -2.0155   1.0285  10.1318  11.1954  11.3559
    11.5428  13.1825  14.1094  14.2955

          k = 0.5833-0.1443 0.0000 (  3804 PWs)   bands (ev):

   -14.2695 -13.2721  -8.6566  -2.1413   1.0984   9.6912  11.2393  11.3464
    11.4148  13.0415  14.0151  14.1781

          k = 0.5750-0.1588 0.0000 (  3804 PWs)   bands (ev):

   -14.3495 -13.3449  -8.3626  -2.2553   1.1554   9.2672  11.1321  11.2984
    11.4852  12.9139  13.9262  14.0703

          k = 0.5667-0.1732 0.0000 (  3808 PWs)   bands (ev):

   -14.4212 -13.4119  -8.0821  -2.3575   1.2012   8.8663  11.0349  11.1937
    11.6065  12.7996  13.8438  13.9726

          k = 0.5583-0.1876 0.0000 (  3808 PWs)   bands (ev):

   -14.4844 -13.4721  -7.8194  -2.4478   1.2374   8.4946  10.9482  11.1009
    11.7072  12.6988  13.7693  13.8855

          k = 0.5500-0.2021 0.0000 (  3812 PWs)   bands (ev):

   -14.5392 -13.5250  -7.5790  -2.5261   1.2656   8.1577  10.8725  11.0201
    11.7867  12.6114  13.7032  13.8094

          k = 0.5417-0.2165 0.0000 (  3816 PWs)   bands (ev):

   -14.5856 -13.5704  -7.3653  -2.5925   1.2871   7.8610  10.8079  10.9515
    11.8466  12.5374  13.6465  13.7445

          k = 0.5333-0.2309 0.0000 (  3820 PWs)   bands (ev):

   -14.6235 -13.6078  -7.1827  -2.6468   1.3031   7.6097  10.7548  10.8953
    11.8898  12.4768  13.5994  13.6912

          k = 0.5250-0.2454 0.0000 (  3820 PWs)   bands (ev):

   -14.6531 -13.6371  -7.0355  -2.6891   1.3145   7.4085  10.7134  10.8514
    11.9195  12.4297  13.5624  13.6495

          k = 0.5167-0.2598 0.0000 (  3824 PWs)   bands (ev):

   -14.6742 -13.6581  -6.9275  -2.7193   1.3221   7.2616  10.6837  10.8200
    11.9384  12.3960  13.5359  13.6196

          k = 0.5083-0.2742 0.0000 (  3816 PWs)   bands (ev):

   -14.6868 -13.6707  -6.8613  -2.7374   1.3265   7.1720  10.6658  10.8011
    11.9489  12.3758  13.5199  13.6017

          k = 0.5000-0.2887 0.0000 (  3818 PWs)   bands (ev):

   -14.6910 -13.6750  -6.8390  -2.7435   1.3279   7.1420  10.6599  10.7949
    11.9523  12.3691  13.5145  13.5957

     Writing output data file ./tmp/graphene.save/

     init_run     :      0.19s CPU      0.10s WALL (       1 calls)
     electrons    :    505.36s CPU     52.62s WALL (       1 calls)

     Called by init_run:
     wfcinit      :      0.00s CPU      0.00s WALL (       1 calls)
     potinit      :      0.03s CPU      0.02s WALL (       1 calls)
     hinit0       :      0.10s CPU      0.06s WALL (       1 calls)

     Called by electrons:
     c_bands      :    505.36s CPU     52.62s WALL (       1 calls)
     v_of_rho     :      0.03s CPU      0.01s WALL (       1 calls)

     Called by c_bands:
     init_us_2    :      0.15s CPU      0.03s WALL (      98 calls)
     cegterg      :    489.83s CPU     51.05s WALL (     282 calls)

     Called by *egterg:
     cdiaghg      :      7.20s CPU      0.71s WALL (    4863 calls)
     h_psi        :    390.72s CPU     40.85s WALL (    5145 calls)
     g_psi        :      3.64s CPU      0.39s WALL (    4765 calls)

     Called by h_psi:
     h_psi:calbec :     30.31s CPU      3.22s WALL (    5145 calls)
     vloc_psi     :    339.74s CPU     35.23s WALL (    5145 calls)
     add_vuspsi   :     19.40s CPU      2.25s WALL (    5145 calls)

     General routines
     calbec       :     30.13s CPU      3.20s WALL (    5145 calls)
     fft          :      0.02s CPU      0.01s WALL (      11 calls)
     fftw         :    297.95s CPU     30.91s WALL (   66744 calls)
     davcio       :      1.75s CPU      0.08s WALL (     196 calls)

     Parallel routines

     PWSCF        :   8m26.02s CPU     53.02s WALL


   This run was terminated on:  11:33:57   7Jan2024            

=------------------------------------------------------------------------------=
   JOB DONE.
=------------------------------------------------------------------------------=
