
     Program PWSCF v.6.6 starts on  5Jan2024 at 11: 6:24 

     This program is part of the open-source Quantum ESPRESSO suite
     for quantum simulation of materials; please cite
         "P. Giannozzi et al., J. Phys.:Condens. Matter 21 395502 (2009);
         "P. Giannozzi et al., J. Phys.:Condens. Matter 29 465901 (2017);
          URL http://www.quantum-espresso.org", 
     in publications or presentations arising from this work. More details at
     http://www.quantum-espresso.org/quote

     Parallel version (MPI), running on     1 processors

     MPI processes distributed on     1 nodes
     Fft bands division:     nmany     =       1
     Waiting for input...
     Reading input from standard input

     Current dimensions of program PWSCF are:
     Max number of different atomic species (ntypx) = 10
     Max number of k-points (npk) =  40000
     Max angular momentum in pseudopotentials (lmaxx) =  3

     Subspace diagonalization in iterative solution of the eigenvalue problem:
     a serial algorithm will be used


     G-vector sticks info
     --------------------
     sticks:   dense  smooth     PW     G-vecs:    dense   smooth      PW
     Sum         253     253     85                 2685     2685     537



     bravais-lattice index     =            2
     lattice parameter (alat)  =       6.7500  a.u.
     unit-cell volume          =      76.8867 (a.u.)^3
     number of atoms/cell      =            2
     number of atomic types    =            1
     number of electrons       =         8.00
     number of Kohn-Sham states=            4
     kinetic-energy cutoff     =      40.0000  Ry
     charge density cutoff     =     160.0000  Ry
     convergence threshold     =      1.0E-08
     mixing beta               =       0.7000
     number of iterations used =            8  plain     mixing
     Exchange-correlation= PBE
                           (   1   4   3   4   0   0   0)

     celldm(1)=   6.750000  celldm(2)=   0.000000  celldm(3)=   0.000000
     celldm(4)=   0.000000  celldm(5)=   0.000000  celldm(6)=   0.000000

     crystal axes: (cart. coord. in units of alat)
               a(1) = (  -0.500000   0.000000   0.500000 )  
               a(2) = (   0.000000   0.500000   0.500000 )  
               a(3) = (  -0.500000   0.500000   0.000000 )  

     reciprocal axes: (cart. coord. in units 2 pi/alat)
               b(1) = ( -1.000000 -1.000000  1.000000 )  
               b(2) = (  1.000000  1.000000  1.000000 )  
               b(3) = ( -1.000000  1.000000 -1.000000 )  


     PseudoPot. # 1 for C  read from file:
     ./C.UPF
     MD5 check sum: ead9220225bd72a2f9a48cc2a638047d
     Pseudo is Norm-conserving + core correction, Zval =  4.0
     Generated using ONCVPSP code by D. R. Hamann
     Using radial grid of 1248 points,  4 beta functions with: 
                l(1) =   0
                l(2) =   0
                l(3) =   1
                l(4) =   1

     atomic species   valence    mass     pseudopotential
        C              4.00    12.01070     C ( 1.00)

     48 Sym. Ops., with inversion, found (24 have fractional translation)



   Cartesian axes

     site n.     atom                  positions (alat units)
         1           C   tau(   1) = (   0.0000000   0.0000000   0.0000000  )
         2           C   tau(   2) = (  -0.2500000   0.2500000   0.2500000  )

     number of k points=    10
                       cart. coord. in units 2pi/alat
        k(    1) = (  -0.1250000   0.1250000   0.1250000), wk =   0.0625000
        k(    2) = (  -0.3750000   0.3750000  -0.1250000), wk =   0.1875000
        k(    3) = (   0.3750000  -0.3750000   0.6250000), wk =   0.1875000
        k(    4) = (   0.1250000  -0.1250000   0.3750000), wk =   0.1875000
        k(    5) = (  -0.1250000   0.6250000   0.1250000), wk =   0.1875000
        k(    6) = (   0.6250000  -0.1250000   0.8750000), wk =   0.3750000
        k(    7) = (   0.3750000   0.1250000   0.6250000), wk =   0.3750000
        k(    8) = (  -0.1250000  -0.8750000   0.1250000), wk =   0.1875000
        k(    9) = (  -0.3750000   0.3750000   0.3750000), wk =   0.0625000
        k(   10) = (   0.3750000  -0.3750000   1.1250000), wk =   0.1875000

     Dense  grid:     2685 G-vectors     FFT dimensions: (  20,  20,  20)

     Estimated max dynamical RAM per process >       2.34 MB

     Initial potential from superposition of free atoms

     starting charge    7.99991, renormalised to    8.00000
     Starting wfcs are    8 randomized atomic wfcs

     total cpu time spent up to now is        0.1 secs

     Self-consistent Calculation

     iteration #  1     ecut=    40.00 Ry     beta= 0.70
     Davidson diagonalization with overlap
     ethr =  1.00E-02,  avg # of iterations =  2.0

     total cpu time spent up to now is        0.1 secs

     total energy              =     -23.98830905 Ry
     estimated scf accuracy    <       0.09874285 Ry

     iteration #  2     ecut=    40.00 Ry     beta= 0.70
     Davidson diagonalization with overlap
     ethr =  1.23E-03,  avg # of iterations =  1.3

     total cpu time spent up to now is        0.1 secs

     total energy              =     -23.99372301 Ry
     estimated scf accuracy    <       0.00375759 Ry

     iteration #  3     ecut=    40.00 Ry     beta= 0.70
     Davidson diagonalization with overlap
     ethr =  4.70E-05,  avg # of iterations =  2.7

     total cpu time spent up to now is        0.2 secs

     total energy              =     -23.99490808 Ry
     estimated scf accuracy    <       0.00007318 Ry

     iteration #  4     ecut=    40.00 Ry     beta= 0.70
     Davidson diagonalization with overlap
     ethr =  9.15E-07,  avg # of iterations =  4.9

     total cpu time spent up to now is        0.2 secs

     total energy              =     -23.99499325 Ry
     estimated scf accuracy    <       0.00000708 Ry

     iteration #  5     ecut=    40.00 Ry     beta= 0.70
     Davidson diagonalization with overlap
     ethr =  8.85E-08,  avg # of iterations =  3.0

     total cpu time spent up to now is        0.2 secs

     total energy              =     -23.99499583 Ry
     estimated scf accuracy    <       0.00000049 Ry

     iteration #  6     ecut=    40.00 Ry     beta= 0.70
     Davidson diagonalization with overlap
     ethr =  6.10E-09,  avg # of iterations =  3.1

     total cpu time spent up to now is        0.2 secs

     End of self-consistent calculation

          k =-0.1250 0.1250 0.1250 (   329 PWs)   bands (ev):

    -7.7227  10.9941  12.7699  12.7699

          k =-0.3750 0.3750-0.1250 (   326 PWs)   bands (ev):

    -5.4533   5.5860   9.0282  11.6017

          k = 0.3750-0.3750 0.6250 (   331 PWs)   bands (ev):

    -2.4441   0.7985   9.2270   9.8756

          k = 0.1250-0.1250 0.3750 (   326 PWs)   bands (ev):

    -6.5796   8.2938  10.5495  11.3818

          k =-0.1250 0.6250 0.1250 (   327 PWs)   bands (ev):

    -4.3327   5.8270   8.1531   8.5439

          k = 0.6250-0.1250 0.8750 (   330 PWs)   bands (ev):

    -0.4033   2.1710   4.9553   7.0396

          k = 0.3750 0.1250 0.6250 (   328 PWs)   bands (ev):

    -3.2813   3.4946   7.0918   9.3209

          k =-0.1250-0.8750 0.1250 (   328 PWs)   bands (ev):

    -1.1286   2.6485   6.0413   7.4682

          k =-0.3750 0.3750 0.3750 (   326 PWs)   bands (ev):

    -4.3664   2.6838  10.8797  10.8797

          k = 0.3750-0.3750 1.1250 (   331 PWs)   bands (ev):

    -1.4429   1.7568   5.6192   9.1960

     highest occupied level (ev):    12.7699

!    total energy              =     -23.99499601 Ry
     estimated scf accuracy    <          3.1E-09 Ry

     The total energy is the sum of the following terms:
     one-electron contribution =       8.28482840 Ry
     hartree contribution      =       1.90537034 Ry
     xc contribution           =      -8.64778168 Ry
     ewald contribution        =     -25.53741307 Ry

     convergence has been achieved in   6 iterations

     Writing output data file ./tmp/diamond.save/

     init_run     :      0.15s CPU      0.04s WALL (       1 calls)
     electrons    :      0.28s CPU      0.13s WALL (       1 calls)

     Called by init_run:
     wfcinit      :      0.11s CPU      0.01s WALL (       1 calls)
     potinit      :      0.00s CPU      0.00s WALL (       1 calls)
     hinit0       :      0.04s CPU      0.02s WALL (       1 calls)

     Called by electrons:
     c_bands      :      0.22s CPU      0.10s WALL (       6 calls)
     sum_band     :      0.03s CPU      0.02s WALL (       6 calls)
     v_of_rho     :      0.02s CPU      0.01s WALL (       7 calls)
     mix_rho      :      0.00s CPU      0.00s WALL (       6 calls)

     Called by c_bands:
     init_us_2    :      0.01s CPU      0.01s WALL (     130 calls)
     cegterg      :      0.17s CPU      0.09s WALL (      60 calls)

     Called by *egterg:
     cdiaghg      :      0.01s CPU      0.00s WALL (     230 calls)
     h_psi        :      0.20s CPU      0.08s WALL (     240 calls)
     g_psi        :      0.00s CPU      0.00s WALL (     170 calls)

     Called by h_psi:
     h_psi:calbec :      0.02s CPU      0.01s WALL (     240 calls)
     vloc_psi     :      0.13s CPU      0.06s WALL (     240 calls)
     add_vuspsi   :      0.04s CPU      0.01s WALL (     240 calls)

     General routines
     calbec       :      0.02s CPU      0.01s WALL (     240 calls)
     fft          :      0.01s CPU      0.00s WALL (      70 calls)
     ffts         :      0.00s CPU      0.00s WALL (       6 calls)
     fftw         :      0.11s CPU      0.05s WALL (    1948 calls)

     Parallel routines

     PWSCF        :      0.56s CPU      0.24s WALL


   This run was terminated on:  11: 6:25   5Jan2024            

=------------------------------------------------------------------------------=
   JOB DONE.
=------------------------------------------------------------------------------=
