
     Program PWSCF v.6.6 starts on  5Jan2024 at 11: 6:26 

     This program is part of the open-source Quantum ESPRESSO suite
     for quantum simulation of materials; please cite
         "P. Giannozzi et al., J. Phys.:Condens. Matter 21 395502 (2009);
         "P. Giannozzi et al., J. Phys.:Condens. Matter 29 465901 (2017);
          URL http://www.quantum-espresso.org", 
     in publications or presentations arising from this work. More details at
     http://www.quantum-espresso.org/quote

     Parallel version (MPI), running on     1 processors

     MPI processes distributed on     1 nodes
     Fft bands division:     nmany     =       1
     Waiting for input...
     Reading input from standard input

     Current dimensions of program PWSCF are:
     Max number of different atomic species (ntypx) = 10
     Max number of k-points (npk) =  40000
     Max angular momentum in pseudopotentials (lmaxx) =  3

     Subspace diagonalization in iterative solution of the eigenvalue problem:
     a serial algorithm will be used


     G-vector sticks info
     --------------------
     sticks:   dense  smooth     PW     G-vecs:    dense   smooth      PW
     Sum         349     349    121                 4279     4279     869



     bravais-lattice index     =            2
     lattice parameter (alat)  =       6.7500  a.u.
     unit-cell volume          =      76.8867 (a.u.)^3
     number of atoms/cell      =            2
     number of atomic types    =            1
     number of electrons       =         8.00
     number of Kohn-Sham states=            4
     kinetic-energy cutoff     =      55.0000  Ry
     charge density cutoff     =     220.0000  Ry
     convergence threshold     =      1.0E-08
     mixing beta               =       0.7000
     number of iterations used =            8  plain     mixing
     Exchange-correlation= PBE
                           (   1   4   3   4   0   0   0)

     celldm(1)=   6.750000  celldm(2)=   0.000000  celldm(3)=   0.000000
     celldm(4)=   0.000000  celldm(5)=   0.000000  celldm(6)=   0.000000

     crystal axes: (cart. coord. in units of alat)
               a(1) = (  -0.500000   0.000000   0.500000 )  
               a(2) = (   0.000000   0.500000   0.500000 )  
               a(3) = (  -0.500000   0.500000   0.000000 )  

     reciprocal axes: (cart. coord. in units 2 pi/alat)
               b(1) = ( -1.000000 -1.000000  1.000000 )  
               b(2) = (  1.000000  1.000000  1.000000 )  
               b(3) = ( -1.000000  1.000000 -1.000000 )  


     PseudoPot. # 1 for C  read from file:
     ./C.UPF
     MD5 check sum: ead9220225bd72a2f9a48cc2a638047d
     Pseudo is Norm-conserving + core correction, Zval =  4.0
     Generated using ONCVPSP code by D. R. Hamann
     Using radial grid of 1248 points,  4 beta functions with: 
                l(1) =   0
                l(2) =   0
                l(3) =   1
                l(4) =   1

     atomic species   valence    mass     pseudopotential
        C              4.00    12.01070     C ( 1.00)

     48 Sym. Ops., with inversion, found (24 have fractional translation)



   Cartesian axes

     site n.     atom                  positions (alat units)
         1           C   tau(   1) = (   0.0000000   0.0000000   0.0000000  )
         2           C   tau(   2) = (  -0.2500000   0.2500000   0.2500000  )

     number of k points=    10
                       cart. coord. in units 2pi/alat
        k(    1) = (  -0.1250000   0.1250000   0.1250000), wk =   0.0625000
        k(    2) = (  -0.3750000   0.3750000  -0.1250000), wk =   0.1875000
        k(    3) = (   0.3750000  -0.3750000   0.6250000), wk =   0.1875000
        k(    4) = (   0.1250000  -0.1250000   0.3750000), wk =   0.1875000
        k(    5) = (  -0.1250000   0.6250000   0.1250000), wk =   0.1875000
        k(    6) = (   0.6250000  -0.1250000   0.8750000), wk =   0.3750000
        k(    7) = (   0.3750000   0.1250000   0.6250000), wk =   0.3750000
        k(    8) = (  -0.1250000  -0.8750000   0.1250000), wk =   0.1875000
        k(    9) = (  -0.3750000   0.3750000   0.3750000), wk =   0.0625000
        k(   10) = (   0.3750000  -0.3750000   1.1250000), wk =   0.1875000

     Dense  grid:     4279 G-vectors     FFT dimensions: (  24,  24,  24)

     Estimated max dynamical RAM per process >       3.69 MB

     Initial potential from superposition of free atoms

     starting charge    7.99991, renormalised to    8.00000
     Starting wfcs are    8 randomized atomic wfcs

     total cpu time spent up to now is        0.4 secs

     Self-consistent Calculation

     iteration #  1     ecut=    55.00 Ry     beta= 0.70
     Davidson diagonalization with overlap
     ethr =  1.00E-02,  avg # of iterations =  2.0

     total cpu time spent up to now is        0.7 secs

     total energy              =     -24.05461904 Ry
     estimated scf accuracy    <       0.10548696 Ry

     iteration #  2     ecut=    55.00 Ry     beta= 0.70
     Davidson diagonalization with overlap
     ethr =  1.32E-03,  avg # of iterations =  1.3

     total cpu time spent up to now is        0.9 secs

     total energy              =     -24.06081394 Ry
     estimated scf accuracy    <       0.00369195 Ry

     iteration #  3     ecut=    55.00 Ry     beta= 0.70
     Davidson diagonalization with overlap
     ethr =  4.61E-05,  avg # of iterations =  2.8

     total cpu time spent up to now is        1.4 secs

     total energy              =     -24.06223308 Ry
     estimated scf accuracy    <       0.00008105 Ry

     iteration #  4     ecut=    55.00 Ry     beta= 0.70
     Davidson diagonalization with overlap
     ethr =  1.01E-06,  avg # of iterations =  5.3

     total cpu time spent up to now is        1.5 secs

     total energy              =     -24.06233400 Ry
     estimated scf accuracy    <       0.00001089 Ry

     iteration #  5     ecut=    55.00 Ry     beta= 0.70
     Davidson diagonalization with overlap
     ethr =  1.36E-07,  avg # of iterations =  2.6

     total cpu time spent up to now is        1.6 secs

     total energy              =     -24.06233679 Ry
     estimated scf accuracy    <       0.00000070 Ry

     iteration #  6     ecut=    55.00 Ry     beta= 0.70
     Davidson diagonalization with overlap
     ethr =  8.80E-09,  avg # of iterations =  3.2

     total cpu time spent up to now is        1.6 secs

     total energy              =     -24.06233702 Ry
     estimated scf accuracy    <       0.00000001 Ry

     iteration #  7     ecut=    55.00 Ry     beta= 0.70
     Davidson diagonalization with overlap
     ethr =  1.70E-10,  avg # of iterations =  4.5

     total cpu time spent up to now is        1.7 secs

     End of self-consistent calculation

          k =-0.1250 0.1250 0.1250 (   534 PWs)   bands (ev):

    -7.7247  10.8888  12.6565  12.6565

          k =-0.3750 0.3750-0.1250 (   531 PWs)   bands (ev):

    -5.4660   5.5390   8.9415  11.4644

          k = 0.3750-0.3750 0.6250 (   536 PWs)   bands (ev):

    -2.4583   0.7602   9.1511   9.7766

          k = 0.1250-0.1250 0.3750 (   538 PWs)   bands (ev):

    -6.5851   8.2144  10.4313  11.2678

          k =-0.1250 0.6250 0.1250 (   535 PWs)   bands (ev):

    -4.3530   5.7771   8.0824   8.4539

          k = 0.6250-0.1250 0.8750 (   526 PWs)   bands (ev):

    -0.4256   2.1296   4.9033   6.9629

          k = 0.3750 0.1250 0.6250 (   528 PWs)   bands (ev):

    -3.3039   3.4580   7.0261   9.2228

          k =-0.1250-0.8750 0.1250 (   523 PWs)   bands (ev):

    -1.1590   2.6216   5.9718   7.3843

          k =-0.3750 0.3750 0.3750 (   534 PWs)   bands (ev):

    -4.3870   2.6344  10.7764  10.7764

          k = 0.3750-0.3750 1.1250 (   526 PWs)   bands (ev):

    -1.4596   1.7221   5.5658   9.1021

     highest occupied level (ev):    12.6565

!    total energy              =     -24.06233704 Ry
     estimated scf accuracy    <          2.4E-09 Ry

     The total energy is the sum of the following terms:
     one-electron contribution =       8.21173195 Ry
     hartree contribution      =       1.93095371 Ry
     xc contribution           =      -8.66760973 Ry
     ewald contribution        =     -25.53741297 Ry

     convergence has been achieved in   7 iterations

     Writing output data file ./tmp/diamond.save/

     init_run     :      1.98s CPU      0.31s WALL (       1 calls)
     electrons    :      9.62s CPU      1.32s WALL (       1 calls)

     Called by init_run:
     wfcinit      :      1.89s CPU      0.26s WALL (       1 calls)
     potinit      :      0.02s CPU      0.01s WALL (       1 calls)
     hinit0       :      0.07s CPU      0.04s WALL (       1 calls)

     Called by electrons:
     c_bands      :      9.10s CPU      1.24s WALL (       7 calls)
     sum_band     :      0.31s CPU      0.04s WALL (       7 calls)
     v_of_rho     :      0.21s CPU      0.05s WALL (       8 calls)
     mix_rho      :      0.02s CPU      0.00s WALL (       7 calls)

     Called by c_bands:
     init_us_2    :      0.05s CPU      0.01s WALL (     150 calls)
     cegterg      :      8.99s CPU      1.22s WALL (      70 calls)

     Called by *egterg:
     cdiaghg      :      0.10s CPU      0.01s WALL (     287 calls)
     h_psi        :     10.20s CPU      1.38s WALL (     297 calls)
     g_psi        :      0.02s CPU      0.00s WALL (     217 calls)

     Called by h_psi:
     h_psi:calbec :      5.22s CPU      0.67s WALL (     297 calls)
     vloc_psi     :      1.57s CPU      0.21s WALL (     297 calls)
     add_vuspsi   :      3.39s CPU      0.50s WALL (     297 calls)

     General routines
     calbec       :      5.22s CPU      0.67s WALL (     297 calls)
     fft          :      0.04s CPU      0.01s WALL (      80 calls)
     ffts         :      0.01s CPU      0.00s WALL (       7 calls)
     fftw         :      1.54s CPU      0.20s WALL (    2318 calls)

     Parallel routines

     PWSCF        :     11.86s CPU      1.70s WALL


   This run was terminated on:  11: 6:27   5Jan2024            

=------------------------------------------------------------------------------=
   JOB DONE.
=------------------------------------------------------------------------------=
