
     Program PWSCF v.6.6 starts on 20Dec2023 at 11:20:16 

     This program is part of the open-source Quantum ESPRESSO suite
     for quantum simulation of materials; please cite
         "P. Giannozzi et al., J. Phys.:Condens. Matter 21 395502 (2009);
         "P. Giannozzi et al., J. Phys.:Condens. Matter 29 465901 (2017);
          URL http://www.quantum-espresso.org", 
     in publications or presentations arising from this work. More details at
     http://www.quantum-espresso.org/quote

     Parallel version (MPI), running on     1 processors

     MPI processes distributed on     1 nodes
     Fft bands division:     nmany     =       1
     Waiting for input...
     Reading input from standard input

     Current dimensions of program PWSCF are:
     Max number of different atomic species (ntypx) = 10
     Max number of k-points (npk) =  40000
     Max angular momentum in pseudopotentials (lmaxx) =  3

     Subspace diagonalization in iterative solution of the eigenvalue problem:
     a serial algorithm will be used


     G-vector sticks info
     --------------------
     sticks:   dense  smooth     PW     G-vecs:    dense   smooth      PW
     Sum         721     721    211                12675    12675    2109



     bravais-lattice index     =            2
     lattice parameter (alat)  =       6.7500  a.u.
     unit-cell volume          =      76.8867 (a.u.)^3
     number of atoms/cell      =            2
     number of atomic types    =            1
     number of electrons       =         8.00
     number of Kohn-Sham states=            4
     kinetic-energy cutoff     =     115.0000  Ry
     charge density cutoff     =     460.0000  Ry
     convergence threshold     =      1.0E-08
     mixing beta               =       0.7000
     number of iterations used =            8  plain     mixing
     Exchange-correlation= PBE
                           (   1   4   3   4   0   0   0)

     celldm(1)=   6.750000  celldm(2)=   0.000000  celldm(3)=   0.000000
     celldm(4)=   0.000000  celldm(5)=   0.000000  celldm(6)=   0.000000

     crystal axes: (cart. coord. in units of alat)
               a(1) = (  -0.500000   0.000000   0.500000 )  
               a(2) = (   0.000000   0.500000   0.500000 )  
               a(3) = (  -0.500000   0.500000   0.000000 )  

     reciprocal axes: (cart. coord. in units 2 pi/alat)
               b(1) = ( -1.000000 -1.000000  1.000000 )  
               b(2) = (  1.000000  1.000000  1.000000 )  
               b(3) = ( -1.000000  1.000000 -1.000000 )  


     PseudoPot. # 1 for C  read from file:
     ./C.UPF
     MD5 check sum: ead9220225bd72a2f9a48cc2a638047d
     Pseudo is Norm-conserving + core correction, Zval =  4.0
     Generated using ONCVPSP code by D. R. Hamann
     Using radial grid of 1248 points,  4 beta functions with: 
                l(1) =   0
                l(2) =   0
                l(3) =   1
                l(4) =   1

     atomic species   valence    mass     pseudopotential
        C              4.00    12.01070     C ( 1.00)

     48 Sym. Ops., with inversion, found (24 have fractional translation)



   Cartesian axes

     site n.     atom                  positions (alat units)
         1           C   tau(   1) = (   0.0000000   0.0000000   0.0000000  )
         2           C   tau(   2) = (  -0.2500000   0.2500000   0.2500000  )

     number of k points=    10
                       cart. coord. in units 2pi/alat
        k(    1) = (  -0.1250000   0.1250000   0.1250000), wk =   0.0625000
        k(    2) = (  -0.3750000   0.3750000  -0.1250000), wk =   0.1875000
        k(    3) = (   0.3750000  -0.3750000   0.6250000), wk =   0.1875000
        k(    4) = (   0.1250000  -0.1250000   0.3750000), wk =   0.1875000
        k(    5) = (  -0.1250000   0.6250000   0.1250000), wk =   0.1875000
        k(    6) = (   0.6250000  -0.1250000   0.8750000), wk =   0.3750000
        k(    7) = (   0.3750000   0.1250000   0.6250000), wk =   0.3750000
        k(    8) = (  -0.1250000  -0.8750000   0.1250000), wk =   0.1875000
        k(    9) = (  -0.3750000   0.3750000   0.3750000), wk =   0.0625000
        k(   10) = (   0.3750000  -0.3750000   1.1250000), wk =   0.1875000

     Dense  grid:    12675 G-vectors     FFT dimensions: (  36,  36,  36)

     Estimated max dynamical RAM per process >      10.83 MB

     Initial potential from superposition of free atoms

     starting charge    7.99991, renormalised to    8.00000
     Starting wfcs are    8 randomized atomic wfcs

     total cpu time spent up to now is        0.2 secs

     Self-consistent Calculation

     iteration #  1     ecut=   115.00 Ry     beta= 0.70
     Davidson diagonalization with overlap
     ethr =  1.00E-02,  avg # of iterations =  2.0

     total cpu time spent up to now is        0.4 secs

     total energy              =     -24.06795195 Ry
     estimated scf accuracy    <       0.10712271 Ry

     iteration #  2     ecut=   115.00 Ry     beta= 0.70
     Davidson diagonalization with overlap
     ethr =  1.34E-03,  avg # of iterations =  1.3

     total cpu time spent up to now is        0.5 secs

     total energy              =     -24.07427764 Ry
     estimated scf accuracy    <       0.00369928 Ry

     iteration #  3     ecut=   115.00 Ry     beta= 0.70
     Davidson diagonalization with overlap
     ethr =  4.62E-05,  avg # of iterations =  2.8

     total cpu time spent up to now is        0.9 secs

     total energy              =     -24.07576806 Ry
     estimated scf accuracy    <       0.00008582 Ry

     iteration #  4     ecut=   115.00 Ry     beta= 0.70
     Davidson diagonalization with overlap
     ethr =  1.07E-06,  avg # of iterations =  5.3

     total cpu time spent up to now is        1.3 secs

     total energy              =     -24.07587578 Ry
     estimated scf accuracy    <       0.00001266 Ry

     iteration #  5     ecut=   115.00 Ry     beta= 0.70
     Davidson diagonalization with overlap
     ethr =  1.58E-07,  avg # of iterations =  2.6

     total cpu time spent up to now is        1.5 secs

     total energy              =     -24.07587907 Ry
     estimated scf accuracy    <       0.00000085 Ry

     iteration #  6     ecut=   115.00 Ry     beta= 0.70
     Davidson diagonalization with overlap
     ethr =  1.06E-08,  avg # of iterations =  3.2

     total cpu time spent up to now is        1.7 secs

     total energy              =     -24.07587937 Ry
     estimated scf accuracy    <       0.00000001 Ry

     iteration #  7     ecut=   115.00 Ry     beta= 0.70
     Davidson diagonalization with overlap
     ethr =  1.85E-10,  avg # of iterations =  4.8

     total cpu time spent up to now is        1.9 secs

     End of self-consistent calculation

          k =-0.1250 0.1250 0.1250 (  1588 PWs)   bands (ev):

    -7.7198  10.8719  12.6287  12.6287

          k =-0.3750 0.3750-0.1250 (  1595 PWs)   bands (ev):

    -5.4627   5.5313   8.9239  11.4400

          k = 0.3750-0.3750 0.6250 (  1599 PWs)   bands (ev):

    -2.4534   0.7558   9.1341   9.7584

          k = 0.1250-0.1250 0.3750 (  1602 PWs)   bands (ev):

    -6.5808   8.2020  10.4109  11.2497

          k =-0.1250 0.6250 0.1250 (  1611 PWs)   bands (ev):

    -4.3490   5.7715   8.0675   8.4360

          k = 0.6250-0.1250 0.8750 (  1606 PWs)   bands (ev):

    -0.4229   2.1278   4.8909   6.9476

          k = 0.3750 0.1250 0.6250 (  1602 PWs)   bands (ev):

    -3.3013   3.4520   7.0132   9.2058

          k =-0.1250-0.8750 0.1250 (  1606 PWs)   bands (ev):

    -1.1578   2.6210   5.9555   7.3664

          k =-0.3750 0.3750 0.3750 (  1607 PWs)   bands (ev):

    -4.3828   2.6299  10.7518  10.7518

          k = 0.3750-0.3750 1.1250 (  1597 PWs)   bands (ev):

    -1.4565   1.7169   5.5542   9.0814

     highest occupied level (ev):    12.6287

!    total energy              =     -24.07587939 Ry
     estimated scf accuracy    <          2.7E-09 Ry

     The total energy is the sum of the following terms:
     one-electron contribution =       8.19778686 Ry
     hartree contribution      =       1.93657380 Ry
     xc contribution           =      -8.67282709 Ry
     ewald contribution        =     -25.53741295 Ry

     convergence has been achieved in   7 iterations

     Writing output data file ./tmp/diamond.save/

     init_run     :      0.71s CPU      0.14s WALL (       1 calls)
     electrons    :     12.48s CPU      1.70s WALL (       1 calls)

     Called by init_run:
     wfcinit      :      0.57s CPU      0.07s WALL (       1 calls)
     potinit      :      0.04s CPU      0.02s WALL (       1 calls)
     hinit0       :      0.09s CPU      0.04s WALL (       1 calls)

     Called by electrons:
     c_bands      :     11.53s CPU      1.44s WALL (       7 calls)
     sum_band     :      0.68s CPU      0.12s WALL (       7 calls)
     v_of_rho     :      0.28s CPU      0.14s WALL (       8 calls)
     mix_rho      :      0.02s CPU      0.01s WALL (       7 calls)

     Called by c_bands:
     init_us_2    :      0.12s CPU      0.02s WALL (     150 calls)
     cegterg      :     11.10s CPU      1.39s WALL (      70 calls)

     Called by *egterg:
     cdiaghg      :      0.06s CPU      0.01s WALL (     290 calls)
     h_psi        :      9.38s CPU      1.17s WALL (     300 calls)
     g_psi        :      0.02s CPU      0.00s WALL (     220 calls)

     Called by h_psi:
     h_psi:calbec :      2.33s CPU      0.29s WALL (     300 calls)
     vloc_psi     :      5.45s CPU      0.70s WALL (     300 calls)
     add_vuspsi   :      1.57s CPU      0.17s WALL (     300 calls)

     General routines
     calbec       :      2.32s CPU      0.29s WALL (     300 calls)
     fft          :      0.10s CPU      0.05s WALL (      80 calls)
     ffts         :      0.01s CPU      0.00s WALL (       7 calls)
     fftw         :      5.21s CPU      0.68s WALL (    2324 calls)

     Parallel routines

     PWSCF        :     13.35s CPU      1.93s WALL


   This run was terminated on:  11:20:18  20Dec2023            

=------------------------------------------------------------------------------=
   JOB DONE.
=------------------------------------------------------------------------------=
