
     Program PWSCF v.6.6 starts on  5Jan2024 at 11: 6:43 

     This program is part of the open-source Quantum ESPRESSO suite
     for quantum simulation of materials; please cite
         "P. Giannozzi et al., J. Phys.:Condens. Matter 21 395502 (2009);
         "P. Giannozzi et al., J. Phys.:Condens. Matter 29 465901 (2017);
          URL http://www.quantum-espresso.org", 
     in publications or presentations arising from this work. More details at
     http://www.quantum-espresso.org/quote

     Parallel version (MPI), running on     1 processors

     MPI processes distributed on     1 nodes
     Fft bands division:     nmany     =       1
     Waiting for input...
     Reading input from standard input

     Current dimensions of program PWSCF are:
     Max number of different atomic species (ntypx) = 10
     Max number of k-points (npk) =  40000
     Max angular momentum in pseudopotentials (lmaxx) =  3

     Subspace diagonalization in iterative solution of the eigenvalue problem:
     a serial algorithm will be used


     G-vector sticks info
     --------------------
     sticks:   dense  smooth     PW     G-vecs:    dense   smooth      PW
     Sum         661     661    199                11191    11191    1917



     bravais-lattice index     =            2
     lattice parameter (alat)  =       6.7500  a.u.
     unit-cell volume          =      76.8867 (a.u.)^3
     number of atoms/cell      =            2
     number of atomic types    =            1
     number of electrons       =         8.00
     number of Kohn-Sham states=            4
     kinetic-energy cutoff     =     105.0000  Ry
     charge density cutoff     =     420.0000  Ry
     convergence threshold     =      1.0E-08
     mixing beta               =       0.7000
     number of iterations used =            8  plain     mixing
     Exchange-correlation= PBE
                           (   1   4   3   4   0   0   0)

     celldm(1)=   6.750000  celldm(2)=   0.000000  celldm(3)=   0.000000
     celldm(4)=   0.000000  celldm(5)=   0.000000  celldm(6)=   0.000000

     crystal axes: (cart. coord. in units of alat)
               a(1) = (  -0.500000   0.000000   0.500000 )  
               a(2) = (   0.000000   0.500000   0.500000 )  
               a(3) = (  -0.500000   0.500000   0.000000 )  

     reciprocal axes: (cart. coord. in units 2 pi/alat)
               b(1) = ( -1.000000 -1.000000  1.000000 )  
               b(2) = (  1.000000  1.000000  1.000000 )  
               b(3) = ( -1.000000  1.000000 -1.000000 )  


     PseudoPot. # 1 for C  read from file:
     ./C.UPF
     MD5 check sum: ead9220225bd72a2f9a48cc2a638047d
     Pseudo is Norm-conserving + core correction, Zval =  4.0
     Generated using ONCVPSP code by D. R. Hamann
     Using radial grid of 1248 points,  4 beta functions with: 
                l(1) =   0
                l(2) =   0
                l(3) =   1
                l(4) =   1

     atomic species   valence    mass     pseudopotential
        C              4.00    12.01070     C ( 1.00)

     48 Sym. Ops., with inversion, found (24 have fractional translation)



   Cartesian axes

     site n.     atom                  positions (alat units)
         1           C   tau(   1) = (   0.0000000   0.0000000   0.0000000  )
         2           C   tau(   2) = (  -0.2500000   0.2500000   0.2500000  )

     number of k points=    10
                       cart. coord. in units 2pi/alat
        k(    1) = (  -0.1250000   0.1250000   0.1250000), wk =   0.0625000
        k(    2) = (  -0.3750000   0.3750000  -0.1250000), wk =   0.1875000
        k(    3) = (   0.3750000  -0.3750000   0.6250000), wk =   0.1875000
        k(    4) = (   0.1250000  -0.1250000   0.3750000), wk =   0.1875000
        k(    5) = (  -0.1250000   0.6250000   0.1250000), wk =   0.1875000
        k(    6) = (   0.6250000  -0.1250000   0.8750000), wk =   0.3750000
        k(    7) = (   0.3750000   0.1250000   0.6250000), wk =   0.3750000
        k(    8) = (  -0.1250000  -0.8750000   0.1250000), wk =   0.1875000
        k(    9) = (  -0.3750000   0.3750000   0.3750000), wk =   0.0625000
        k(   10) = (   0.3750000  -0.3750000   1.1250000), wk =   0.1875000

     Dense  grid:    11191 G-vectors     FFT dimensions: (  32,  32,  32)

     Estimated max dynamical RAM per process >       9.00 MB

     Initial potential from superposition of free atoms

     starting charge    7.99991, renormalised to    8.00000
     Starting wfcs are    8 randomized atomic wfcs

     total cpu time spent up to now is        0.2 secs

     Self-consistent Calculation

     iteration #  1     ecut=   105.00 Ry     beta= 0.70
     Davidson diagonalization with overlap
     ethr =  1.00E-02,  avg # of iterations =  2.0

     total cpu time spent up to now is        0.3 secs

     total energy              =     -24.06785896 Ry
     estimated scf accuracy    <       0.10721602 Ry

     iteration #  2     ecut=   105.00 Ry     beta= 0.70
     Davidson diagonalization with overlap
     ethr =  1.34E-03,  avg # of iterations =  1.3

     total cpu time spent up to now is        0.5 secs

     total energy              =     -24.07427197 Ry
     estimated scf accuracy    <       0.00367663 Ry

     iteration #  3     ecut=   105.00 Ry     beta= 0.70
     Davidson diagonalization with overlap
     ethr =  4.60E-05,  avg # of iterations =  2.8

     total cpu time spent up to now is        1.3 secs

     total energy              =     -24.07575841 Ry
     estimated scf accuracy    <       0.00008546 Ry

     iteration #  4     ecut=   105.00 Ry     beta= 0.70
     Davidson diagonalization with overlap
     ethr =  1.07E-06,  avg # of iterations =  5.4

     total cpu time spent up to now is        1.5 secs

     total energy              =     -24.07586813 Ry
     estimated scf accuracy    <       0.00001294 Ry

     iteration #  5     ecut=   105.00 Ry     beta= 0.70
     Davidson diagonalization with overlap
     ethr =  1.62E-07,  avg # of iterations =  2.3

     total cpu time spent up to now is        1.7 secs

     total energy              =     -24.07587109 Ry
     estimated scf accuracy    <       0.00000065 Ry

     iteration #  6     ecut=   105.00 Ry     beta= 0.70
     Davidson diagonalization with overlap
     ethr =  8.17E-09,  avg # of iterations =  3.5

     total cpu time spent up to now is        1.8 secs

     total energy              =     -24.07587132 Ry
     estimated scf accuracy    <       0.00000001 Ry

     iteration #  7     ecut=   105.00 Ry     beta= 0.70
     Davidson diagonalization with overlap
     ethr =  1.39E-10,  avg # of iterations =  4.3

     total cpu time spent up to now is        2.0 secs

     End of self-consistent calculation

          k =-0.1250 0.1250 0.1250 (  1411 PWs)   bands (ev):

    -7.7197  10.8720  12.6290  12.6290

          k =-0.3750 0.3750-0.1250 (  1393 PWs)   bands (ev):

    -5.4626   5.5314   8.9240  11.4402

          k = 0.3750-0.3750 0.6250 (  1409 PWs)   bands (ev):

    -2.4533   0.7559   9.1343   9.7586

          k = 0.1250-0.1250 0.3750 (  1390 PWs)   bands (ev):

    -6.5807   8.2022  10.4111  11.2499

          k =-0.1250 0.6250 0.1250 (  1398 PWs)   bands (ev):

    -4.3489   5.7717   8.0677   8.4362

          k = 0.6250-0.1250 0.8750 (  1402 PWs)   bands (ev):

    -0.4228   2.1280   4.8910   6.9477

          k = 0.3750 0.1250 0.6250 (  1395 PWs)   bands (ev):

    -3.3012   3.4522   7.0134   9.2060

          k =-0.1250-0.8750 0.1250 (  1388 PWs)   bands (ev):

    -1.1577   2.6212   5.9557   7.3665

          k =-0.3750 0.3750 0.3750 (  1410 PWs)   bands (ev):

    -4.3827   2.6301  10.7521  10.7521

          k = 0.3750-0.3750 1.1250 (  1400 PWs)   bands (ev):

    -1.4563   1.7170   5.5544   9.0815

     highest occupied level (ev):    12.6290

!    total energy              =     -24.07587133 Ry
     estimated scf accuracy    <          2.0E-09 Ry

     The total energy is the sum of the following terms:
     one-electron contribution =       8.19781300 Ry
     hartree contribution      =       1.93653445 Ry
     xc contribution           =      -8.67280584 Ry
     ewald contribution        =     -25.53741295 Ry

     convergence has been achieved in   7 iterations

     Writing output data file ./tmp/diamond.save/

     init_run     :      0.64s CPU      0.12s WALL (       1 calls)
     electrons    :     13.29s CPU      1.80s WALL (       1 calls)

     Called by init_run:
     wfcinit      :      0.54s CPU      0.07s WALL (       1 calls)
     potinit      :      0.02s CPU      0.01s WALL (       1 calls)
     hinit0       :      0.06s CPU      0.04s WALL (       1 calls)

     Called by electrons:
     c_bands      :     12.64s CPU      1.66s WALL (       7 calls)
     sum_band     :      0.52s CPU      0.08s WALL (       7 calls)
     v_of_rho     :      0.13s CPU      0.07s WALL (       8 calls)
     mix_rho      :      0.01s CPU      0.01s WALL (       7 calls)

     Called by c_bands:
     init_us_2    :      0.18s CPU      0.02s WALL (     150 calls)
     cegterg      :     12.35s CPU      1.61s WALL (      70 calls)

     Called by *egterg:
     cdiaghg      :      0.07s CPU      0.01s WALL (     286 calls)
     h_psi        :      9.97s CPU      1.27s WALL (     296 calls)
     g_psi        :      0.02s CPU      0.00s WALL (     216 calls)

     Called by h_psi:
     h_psi:calbec :      4.36s CPU      0.56s WALL (     296 calls)
     vloc_psi     :      3.38s CPU      0.42s WALL (     296 calls)
     add_vuspsi   :      2.22s CPU      0.29s WALL (     296 calls)

     General routines
     calbec       :      4.35s CPU      0.55s WALL (     296 calls)
     fft          :      0.06s CPU      0.03s WALL (      80 calls)
     ffts         :      0.01s CPU      0.00s WALL (       7 calls)
     fftw         :      3.08s CPU      0.40s WALL (    2300 calls)

     Parallel routines

     PWSCF        :     14.05s CPU      2.01s WALL


   This run was terminated on:  11: 6:45   5Jan2024            

=------------------------------------------------------------------------------=
   JOB DONE.
=------------------------------------------------------------------------------=
