
     Program PWSCF v.6.6 starts on  5Jan2024 at 11: 6:29 

     This program is part of the open-source Quantum ESPRESSO suite
     for quantum simulation of materials; please cite
         "P. Giannozzi et al., J. Phys.:Condens. Matter 21 395502 (2009);
         "P. Giannozzi et al., J. Phys.:Condens. Matter 29 465901 (2017);
          URL http://www.quantum-espresso.org", 
     in publications or presentations arising from this work. More details at
     http://www.quantum-espresso.org/quote

     Parallel version (MPI), running on     1 processors

     MPI processes distributed on     1 nodes
     Fft bands division:     nmany     =       1
     Waiting for input...
     Reading input from standard input

     Current dimensions of program PWSCF are:
     Max number of different atomic species (ntypx) = 10
     Max number of k-points (npk) =  40000
     Max angular momentum in pseudopotentials (lmaxx) =  3

     Subspace diagonalization in iterative solution of the eigenvalue problem:
     a serial algorithm will be used


     G-vector sticks info
     --------------------
     sticks:   dense  smooth     PW     G-vecs:    dense   smooth      PW
     Sum         421     421    127                 5577     5577     965



     bravais-lattice index     =            2
     lattice parameter (alat)  =       6.7500  a.u.
     unit-cell volume          =      76.8867 (a.u.)^3
     number of atoms/cell      =            2
     number of atomic types    =            1
     number of electrons       =         8.00
     number of Kohn-Sham states=            4
     kinetic-energy cutoff     =      65.0000  Ry
     charge density cutoff     =     260.0000  Ry
     convergence threshold     =      1.0E-08
     mixing beta               =       0.7000
     number of iterations used =            8  plain     mixing
     Exchange-correlation= PBE
                           (   1   4   3   4   0   0   0)

     celldm(1)=   6.750000  celldm(2)=   0.000000  celldm(3)=   0.000000
     celldm(4)=   0.000000  celldm(5)=   0.000000  celldm(6)=   0.000000

     crystal axes: (cart. coord. in units of alat)
               a(1) = (  -0.500000   0.000000   0.500000 )  
               a(2) = (   0.000000   0.500000   0.500000 )  
               a(3) = (  -0.500000   0.500000   0.000000 )  

     reciprocal axes: (cart. coord. in units 2 pi/alat)
               b(1) = ( -1.000000 -1.000000  1.000000 )  
               b(2) = (  1.000000  1.000000  1.000000 )  
               b(3) = ( -1.000000  1.000000 -1.000000 )  


     PseudoPot. # 1 for C  read from file:
     ./C.UPF
     MD5 check sum: ead9220225bd72a2f9a48cc2a638047d
     Pseudo is Norm-conserving + core correction, Zval =  4.0
     Generated using ONCVPSP code by D. R. Hamann
     Using radial grid of 1248 points,  4 beta functions with: 
                l(1) =   0
                l(2) =   0
                l(3) =   1
                l(4) =   1

     atomic species   valence    mass     pseudopotential
        C              4.00    12.01070     C ( 1.00)

     48 Sym. Ops., with inversion, found (24 have fractional translation)



   Cartesian axes

     site n.     atom                  positions (alat units)
         1           C   tau(   1) = (   0.0000000   0.0000000   0.0000000  )
         2           C   tau(   2) = (  -0.2500000   0.2500000   0.2500000  )

     number of k points=    10
                       cart. coord. in units 2pi/alat
        k(    1) = (  -0.1250000   0.1250000   0.1250000), wk =   0.0625000
        k(    2) = (  -0.3750000   0.3750000  -0.1250000), wk =   0.1875000
        k(    3) = (   0.3750000  -0.3750000   0.6250000), wk =   0.1875000
        k(    4) = (   0.1250000  -0.1250000   0.3750000), wk =   0.1875000
        k(    5) = (  -0.1250000   0.6250000   0.1250000), wk =   0.1875000
        k(    6) = (   0.6250000  -0.1250000   0.8750000), wk =   0.3750000
        k(    7) = (   0.3750000   0.1250000   0.6250000), wk =   0.3750000
        k(    8) = (  -0.1250000  -0.8750000   0.1250000), wk =   0.1875000
        k(    9) = (  -0.3750000   0.3750000   0.3750000), wk =   0.0625000
        k(   10) = (   0.3750000  -0.3750000   1.1250000), wk =   0.1875000

     Dense  grid:     5577 G-vectors     FFT dimensions: (  32,  32,  32)

     Estimated max dynamical RAM per process >       5.73 MB

     Initial potential from superposition of free atoms

     starting charge    7.99991, renormalised to    8.00000
     Starting wfcs are    8 randomized atomic wfcs

     total cpu time spent up to now is        0.1 secs

     Self-consistent Calculation

     iteration #  1     ecut=    65.00 Ry     beta= 0.70
     Davidson diagonalization with overlap
     ethr =  1.00E-02,  avg # of iterations =  2.0

     total cpu time spent up to now is        0.3 secs

     total energy              =     -24.06465644 Ry
     estimated scf accuracy    <       0.10659570 Ry

     iteration #  2     ecut=    65.00 Ry     beta= 0.70
     Davidson diagonalization with overlap
     ethr =  1.33E-03,  avg # of iterations =  1.3

     total cpu time spent up to now is        0.4 secs

     total energy              =     -24.07097699 Ry
     estimated scf accuracy    <       0.00370937 Ry

     iteration #  3     ecut=    65.00 Ry     beta= 0.70
     Davidson diagonalization with overlap
     ethr =  4.64E-05,  avg # of iterations =  2.8

     total cpu time spent up to now is        0.5 secs

     total energy              =     -24.07245989 Ry
     estimated scf accuracy    <       0.00008354 Ry

     iteration #  4     ecut=    65.00 Ry     beta= 0.70
     Davidson diagonalization with overlap
     ethr =  1.04E-06,  avg # of iterations =  5.3

     total cpu time spent up to now is        1.0 secs

     total energy              =     -24.07256496 Ry
     estimated scf accuracy    <       0.00001222 Ry

     iteration #  5     ecut=    65.00 Ry     beta= 0.70
     Davidson diagonalization with overlap
     ethr =  1.53E-07,  avg # of iterations =  2.5

     total cpu time spent up to now is        1.2 secs

     total energy              =     -24.07256808 Ry
     estimated scf accuracy    <       0.00000073 Ry

     iteration #  6     ecut=    65.00 Ry     beta= 0.70
     Davidson diagonalization with overlap
     ethr =  9.19E-09,  avg # of iterations =  3.0

     total cpu time spent up to now is        1.3 secs

     total energy              =     -24.07256837 Ry
     estimated scf accuracy    <       0.00000002 Ry

     iteration #  7     ecut=    65.00 Ry     beta= 0.70
     Davidson diagonalization with overlap
     ethr =  1.89E-10,  avg # of iterations =  5.0

     total cpu time spent up to now is        1.5 secs

     End of self-consistent calculation

          k =-0.1250 0.1250 0.1250 (   673 PWs)   bands (ev):

    -7.7208  10.8766  12.6365  12.6365

          k =-0.3750 0.3750-0.1250 (   672 PWs)   bands (ev):

    -5.4636   5.5332   8.9281  11.4471

          k = 0.3750-0.3750 0.6250 (   679 PWs)   bands (ev):

    -2.4549   0.7559   9.1396   9.7652

          k = 0.1250-0.1250 0.3750 (   674 PWs)   bands (ev):

    -6.5817   8.2049  10.4169  11.2543

          k =-0.1250 0.6250 0.1250 (   681 PWs)   bands (ev):

    -4.3501   5.7729   8.0710   8.4411

          k = 0.6250-0.1250 0.8750 (   687 PWs)   bands (ev):

    -0.4241   2.1274   4.8923   6.9510

          k = 0.3750 0.1250 0.6250 (   677 PWs)   bands (ev):

    -3.3024   3.4529   7.0163   9.2108

          k =-0.1250-0.8750 0.1250 (   680 PWs)   bands (ev):

    -1.1584   2.6206   5.9588   7.3708

          k =-0.3750 0.3750 0.3750 (   676 PWs)   bands (ev):

    -4.3838   2.6308  10.7580  10.7580

          k = 0.3750-0.3750 1.1250 (   687 PWs)   bands (ev):

    -1.4578   1.7167   5.5558   9.0867

     highest occupied level (ev):    12.6365

!    total energy              =     -24.07256839 Ry
     estimated scf accuracy    <          1.9E-09 Ry

     The total energy is the sum of the following terms:
     one-electron contribution =       8.20104290 Ry
     hartree contribution      =       1.93523493 Ry
     xc contribution           =      -8.67143327 Ry
     ewald contribution        =     -25.53741295 Ry

     convergence has been achieved in   7 iterations

     Writing output data file ./tmp/diamond.save/

     init_run     :      0.34s CPU      0.08s WALL (       1 calls)
     electrons    :      8.63s CPU      1.32s WALL (       1 calls)

     Called by init_run:
     wfcinit      :      0.26s CPU      0.03s WALL (       1 calls)
     potinit      :      0.02s CPU      0.01s WALL (       1 calls)
     hinit0       :      0.06s CPU      0.03s WALL (       1 calls)

     Called by electrons:
     c_bands      :      8.09s CPU      1.17s WALL (       7 calls)
     sum_band     :      0.40s CPU      0.08s WALL (       7 calls)
     v_of_rho     :      0.13s CPU      0.07s WALL (       8 calls)
     mix_rho      :      0.01s CPU      0.01s WALL (       7 calls)

     Called by c_bands:
     init_us_2    :      0.09s CPU      0.01s WALL (     150 calls)
     cegterg      :      7.89s CPU      1.14s WALL (      70 calls)

     Called by *egterg:
     cdiaghg      :      0.06s CPU      0.01s WALL (     289 calls)
     h_psi        :      7.80s CPU      1.13s WALL (     299 calls)
     g_psi        :      0.01s CPU      0.00s WALL (     219 calls)

     Called by h_psi:
     h_psi:calbec :      2.85s CPU      0.40s WALL (     299 calls)
     vloc_psi     :      2.76s CPU      0.41s WALL (     299 calls)
     add_vuspsi   :      2.14s CPU      0.32s WALL (     299 calls)

     General routines
     calbec       :      2.85s CPU      0.40s WALL (     299 calls)
     fft          :      0.06s CPU      0.04s WALL (      80 calls)
     ffts         :      0.01s CPU      0.00s WALL (       7 calls)
     fftw         :      2.57s CPU      0.39s WALL (    2336 calls)

     Parallel routines

     PWSCF        :      9.09s CPU      1.48s WALL


   This run was terminated on:  11: 6:30   5Jan2024            

=------------------------------------------------------------------------------=
   JOB DONE.
=------------------------------------------------------------------------------=
