
     Program PWSCF v.6.6 starts on 20Dec2023 at 11:19:57 

     This program is part of the open-source Quantum ESPRESSO suite
     for quantum simulation of materials; please cite
         "P. Giannozzi et al., J. Phys.:Condens. Matter 21 395502 (2009);
         "P. Giannozzi et al., J. Phys.:Condens. Matter 29 465901 (2017);
          URL http://www.quantum-espresso.org", 
     in publications or presentations arising from this work. More details at
     http://www.quantum-espresso.org/quote

     Parallel version (MPI), running on     1 processors

     MPI processes distributed on     1 nodes
     Fft bands division:     nmany     =       1
     Waiting for input...
     Reading input from standard input

     Current dimensions of program PWSCF are:
     Max number of different atomic species (ntypx) = 10
     Max number of k-points (npk) =  40000
     Max angular momentum in pseudopotentials (lmaxx) =  3

     Subspace diagonalization in iterative solution of the eigenvalue problem:
     a serial algorithm will be used


     G-vector sticks info
     --------------------
     sticks:   dense  smooth     PW     G-vecs:    dense   smooth      PW
     Sum         283     283     91                 3119     3119     609



     bravais-lattice index     =            2
     lattice parameter (alat)  =       6.7500  a.u.
     unit-cell volume          =      76.8867 (a.u.)^3
     number of atoms/cell      =            2
     number of atomic types    =            1
     number of electrons       =         8.00
     number of Kohn-Sham states=            4
     kinetic-energy cutoff     =      45.0000  Ry
     charge density cutoff     =     180.0000  Ry
     convergence threshold     =      1.0E-08
     mixing beta               =       0.7000
     number of iterations used =            8  plain     mixing
     Exchange-correlation= PBE
                           (   1   4   3   4   0   0   0)

     celldm(1)=   6.750000  celldm(2)=   0.000000  celldm(3)=   0.000000
     celldm(4)=   0.000000  celldm(5)=   0.000000  celldm(6)=   0.000000

     crystal axes: (cart. coord. in units of alat)
               a(1) = (  -0.500000   0.000000   0.500000 )  
               a(2) = (   0.000000   0.500000   0.500000 )  
               a(3) = (  -0.500000   0.500000   0.000000 )  

     reciprocal axes: (cart. coord. in units 2 pi/alat)
               b(1) = ( -1.000000 -1.000000  1.000000 )  
               b(2) = (  1.000000  1.000000  1.000000 )  
               b(3) = ( -1.000000  1.000000 -1.000000 )  


     PseudoPot. # 1 for C  read from file:
     ./C.UPF
     MD5 check sum: ead9220225bd72a2f9a48cc2a638047d
     Pseudo is Norm-conserving + core correction, Zval =  4.0
     Generated using ONCVPSP code by D. R. Hamann
     Using radial grid of 1248 points,  4 beta functions with: 
                l(1) =   0
                l(2) =   0
                l(3) =   1
                l(4) =   1

     atomic species   valence    mass     pseudopotential
        C              4.00    12.01070     C ( 1.00)

     48 Sym. Ops., with inversion, found (24 have fractional translation)



   Cartesian axes

     site n.     atom                  positions (alat units)
         1           C   tau(   1) = (   0.0000000   0.0000000   0.0000000  )
         2           C   tau(   2) = (  -0.2500000   0.2500000   0.2500000  )

     number of k points=    10
                       cart. coord. in units 2pi/alat
        k(    1) = (  -0.1250000   0.1250000   0.1250000), wk =   0.0625000
        k(    2) = (  -0.3750000   0.3750000  -0.1250000), wk =   0.1875000
        k(    3) = (   0.3750000  -0.3750000   0.6250000), wk =   0.1875000
        k(    4) = (   0.1250000  -0.1250000   0.3750000), wk =   0.1875000
        k(    5) = (  -0.1250000   0.6250000   0.1250000), wk =   0.1875000
        k(    6) = (   0.6250000  -0.1250000   0.8750000), wk =   0.3750000
        k(    7) = (   0.3750000   0.1250000   0.6250000), wk =   0.3750000
        k(    8) = (  -0.1250000  -0.8750000   0.1250000), wk =   0.1875000
        k(    9) = (  -0.3750000   0.3750000   0.3750000), wk =   0.0625000
        k(   10) = (   0.3750000  -0.3750000   1.1250000), wk =   0.1875000

     Dense  grid:     3119 G-vectors     FFT dimensions: (  24,  24,  24)

     Estimated max dynamical RAM per process >       3.01 MB

     Initial potential from superposition of free atoms

     starting charge    7.99991, renormalised to    8.00000
     Starting wfcs are    8 randomized atomic wfcs

     total cpu time spent up to now is        0.1 secs

     Self-consistent Calculation

     iteration #  1     ecut=    45.00 Ry     beta= 0.70
     Davidson diagonalization with overlap
     ethr =  1.00E-02,  avg # of iterations =  2.0

     total cpu time spent up to now is        0.2 secs

     total energy              =     -24.02397194 Ry
     estimated scf accuracy    <       0.10235908 Ry

     iteration #  2     ecut=    45.00 Ry     beta= 0.70
     Davidson diagonalization with overlap
     ethr =  1.28E-03,  avg # of iterations =  1.3

     total cpu time spent up to now is        0.2 secs

     total energy              =     -24.02979213 Ry
     estimated scf accuracy    <       0.00371014 Ry

     iteration #  3     ecut=    45.00 Ry     beta= 0.70
     Davidson diagonalization with overlap
     ethr =  4.64E-05,  avg # of iterations =  2.8

     total cpu time spent up to now is        0.2 secs

     total energy              =     -24.03110084 Ry
     estimated scf accuracy    <       0.00007629 Ry

     iteration #  4     ecut=    45.00 Ry     beta= 0.70
     Davidson diagonalization with overlap
     ethr =  9.54E-07,  avg # of iterations =  5.1

     total cpu time spent up to now is        0.4 secs

     total energy              =     -24.03119512 Ry
     estimated scf accuracy    <       0.00000844 Ry

     iteration #  5     ecut=    45.00 Ry     beta= 0.70
     Davidson diagonalization with overlap
     ethr =  1.06E-07,  avg # of iterations =  3.0

     total cpu time spent up to now is        0.4 secs

     total energy              =     -24.03119802 Ry
     estimated scf accuracy    <       0.00000073 Ry

     iteration #  6     ecut=    45.00 Ry     beta= 0.70
     Davidson diagonalization with overlap
     ethr =  9.12E-09,  avg # of iterations =  3.0

     total cpu time spent up to now is        0.4 secs

     End of self-consistent calculation

          k =-0.1250 0.1250 0.1250 (   381 PWs)   bands (ev):

    -7.7179  10.9594  12.7177  12.7177

          k =-0.3750 0.3750-0.1250 (   389 PWs)   bands (ev):

    -5.4622   5.5616   8.9882  11.5194

          k = 0.3750-0.3750 0.6250 (   391 PWs)   bands (ev):

    -2.4571   0.7707   9.2069   9.8296

          k = 0.1250-0.1250 0.3750 (   384 PWs)   bands (ev):

    -6.5779   8.2578  10.4901  11.3244

          k =-0.1250 0.6250 0.1250 (   397 PWs)   bands (ev):

    -4.3523   5.8010   8.1096   8.5013

          k = 0.6250-0.1250 0.8750 (   393 PWs)   bands (ev):

    -0.4254   2.1401   4.9284   7.0032

          k = 0.3750 0.1250 0.6250 (   395 PWs)   bands (ev):

    -3.3047   3.4736   7.0571   9.2754

          k =-0.1250-0.8750 0.1250 (   395 PWs)   bands (ev):

    -1.1598   2.6330   5.9996   7.4376

          k =-0.3750 0.3750 0.3750 (   395 PWs)   bands (ev):

    -4.3855   2.6452  10.8289  10.8289

          k = 0.3750-0.3750 1.1250 (   394 PWs)   bands (ev):

    -1.4590   1.7316   5.5899   9.1445

     highest occupied level (ev):    12.7177

!    total energy              =     -24.03119825 Ry
     estimated scf accuracy    <          3.7E-09 Ry

     The total energy is the sum of the following terms:
     one-electron contribution =       8.24490900 Ry
     hartree contribution      =       1.91937479 Ry
     xc contribution           =      -8.65806904 Ry
     ewald contribution        =     -25.53741299 Ry

     convergence has been achieved in   6 iterations

     Writing output data file ./tmp/diamond.save/

     init_run     :      0.21s CPU      0.05s WALL (       1 calls)
     electrons    :      0.75s CPU      0.32s WALL (       1 calls)

     Called by init_run:
     wfcinit      :      0.14s CPU      0.02s WALL (       1 calls)
     potinit      :      0.01s CPU      0.00s WALL (       1 calls)
     hinit0       :      0.06s CPU      0.03s WALL (       1 calls)

     Called by electrons:
     c_bands      :      0.61s CPU      0.25s WALL (       6 calls)
     sum_band     :      0.07s CPU      0.03s WALL (       6 calls)
     v_of_rho     :      0.07s CPU      0.05s WALL (       7 calls)
     mix_rho      :      0.00s CPU      0.00s WALL (       6 calls)

     Called by c_bands:
     init_us_2    :      0.01s CPU      0.00s WALL (     130 calls)
     cegterg      :      0.59s CPU      0.24s WALL (      60 calls)

     Called by *egterg:
     cdiaghg      :      0.01s CPU      0.00s WALL (     232 calls)
     h_psi        :      0.68s CPU      0.24s WALL (     242 calls)
     g_psi        :      0.00s CPU      0.00s WALL (     172 calls)

     Called by h_psi:
     h_psi:calbec :      0.13s CPU      0.05s WALL (     242 calls)
     vloc_psi     :      0.52s CPU      0.16s WALL (     242 calls)
     add_vuspsi   :      0.02s CPU      0.02s WALL (     242 calls)

     General routines
     calbec       :      0.13s CPU      0.05s WALL (     242 calls)
     fft          :      0.03s CPU      0.02s WALL (      70 calls)
     ffts         :      0.00s CPU      0.00s WALL (       6 calls)
     fftw         :      0.50s CPU      0.15s WALL (    1952 calls)

     Parallel routines

     PWSCF        :      1.12s CPU      0.45s WALL


   This run was terminated on:  11:19:57  20Dec2023            

=------------------------------------------------------------------------------=
   JOB DONE.
=------------------------------------------------------------------------------=
