
     Program PWSCF v.6.6 starts on 20Dec2023 at 11:20: 9 

     This program is part of the open-source Quantum ESPRESSO suite
     for quantum simulation of materials; please cite
         "P. Giannozzi et al., J. Phys.:Condens. Matter 21 395502 (2009);
         "P. Giannozzi et al., J. Phys.:Condens. Matter 29 465901 (2017);
          URL http://www.quantum-espresso.org", 
     in publications or presentations arising from this work. More details at
     http://www.quantum-espresso.org/quote

     Parallel version (MPI), running on     1 processors

     MPI processes distributed on     1 nodes
     Fft bands division:     nmany     =       1
     Waiting for input...
     Reading input from standard input

     Current dimensions of program PWSCF are:
     Max number of different atomic species (ntypx) = 10
     Max number of k-points (npk) =  40000
     Max angular momentum in pseudopotentials (lmaxx) =  3

     Subspace diagonalization in iterative solution of the eigenvalue problem:
     a serial algorithm will be used


     G-vector sticks info
     --------------------
     sticks:   dense  smooth     PW     G-vecs:    dense   smooth      PW
     Sum         595     595    187                 9577     9577    1687



     bravais-lattice index     =            2
     lattice parameter (alat)  =       6.7500  a.u.
     unit-cell volume          =      76.8867 (a.u.)^3
     number of atoms/cell      =            2
     number of atomic types    =            1
     number of electrons       =         8.00
     number of Kohn-Sham states=            4
     kinetic-energy cutoff     =      95.0000  Ry
     charge density cutoff     =     380.0000  Ry
     convergence threshold     =      1.0E-08
     mixing beta               =       0.7000
     number of iterations used =            8  plain     mixing
     Exchange-correlation= PBE
                           (   1   4   3   4   0   0   0)

     celldm(1)=   6.750000  celldm(2)=   0.000000  celldm(3)=   0.000000
     celldm(4)=   0.000000  celldm(5)=   0.000000  celldm(6)=   0.000000

     crystal axes: (cart. coord. in units of alat)
               a(1) = (  -0.500000   0.000000   0.500000 )  
               a(2) = (   0.000000   0.500000   0.500000 )  
               a(3) = (  -0.500000   0.500000   0.000000 )  

     reciprocal axes: (cart. coord. in units 2 pi/alat)
               b(1) = ( -1.000000 -1.000000  1.000000 )  
               b(2) = (  1.000000  1.000000  1.000000 )  
               b(3) = ( -1.000000  1.000000 -1.000000 )  


     PseudoPot. # 1 for C  read from file:
     ./C.UPF
     MD5 check sum: ead9220225bd72a2f9a48cc2a638047d
     Pseudo is Norm-conserving + core correction, Zval =  4.0
     Generated using ONCVPSP code by D. R. Hamann
     Using radial grid of 1248 points,  4 beta functions with: 
                l(1) =   0
                l(2) =   0
                l(3) =   1
                l(4) =   1

     atomic species   valence    mass     pseudopotential
        C              4.00    12.01070     C ( 1.00)

     48 Sym. Ops., with inversion, found (24 have fractional translation)



   Cartesian axes

     site n.     atom                  positions (alat units)
         1           C   tau(   1) = (   0.0000000   0.0000000   0.0000000  )
         2           C   tau(   2) = (  -0.2500000   0.2500000   0.2500000  )

     number of k points=    10
                       cart. coord. in units 2pi/alat
        k(    1) = (  -0.1250000   0.1250000   0.1250000), wk =   0.0625000
        k(    2) = (  -0.3750000   0.3750000  -0.1250000), wk =   0.1875000
        k(    3) = (   0.3750000  -0.3750000   0.6250000), wk =   0.1875000
        k(    4) = (   0.1250000  -0.1250000   0.3750000), wk =   0.1875000
        k(    5) = (  -0.1250000   0.6250000   0.1250000), wk =   0.1875000
        k(    6) = (   0.6250000  -0.1250000   0.8750000), wk =   0.3750000
        k(    7) = (   0.3750000   0.1250000   0.6250000), wk =   0.3750000
        k(    8) = (  -0.1250000  -0.8750000   0.1250000), wk =   0.1875000
        k(    9) = (  -0.3750000   0.3750000   0.3750000), wk =   0.0625000
        k(   10) = (   0.3750000  -0.3750000   1.1250000), wk =   0.1875000

     Dense  grid:     9577 G-vectors     FFT dimensions: (  32,  32,  32)

     Estimated max dynamical RAM per process >       8.08 MB

     Initial potential from superposition of free atoms

     starting charge    7.99991, renormalised to    8.00000
     Starting wfcs are    8 randomized atomic wfcs

     total cpu time spent up to now is        0.3 secs

     Self-consistent Calculation

     iteration #  1     ecut=    95.00 Ry     beta= 0.70
     Davidson diagonalization with overlap
     ethr =  1.00E-02,  avg # of iterations =  2.0

     total cpu time spent up to now is        0.4 secs

     total energy              =     -24.06803096 Ry
     estimated scf accuracy    <       0.10688821 Ry

     iteration #  2     ecut=    95.00 Ry     beta= 0.70
     Davidson diagonalization with overlap
     ethr =  1.34E-03,  avg # of iterations =  1.3

     total cpu time spent up to now is        0.6 secs

     total energy              =     -24.07428552 Ry
     estimated scf accuracy    <       0.00372337 Ry

     iteration #  3     ecut=    95.00 Ry     beta= 0.70
     Davidson diagonalization with overlap
     ethr =  4.65E-05,  avg # of iterations =  2.8

     total cpu time spent up to now is        1.0 secs

     total energy              =     -24.07575575 Ry
     estimated scf accuracy    <       0.00008564 Ry

     iteration #  4     ecut=    95.00 Ry     beta= 0.70
     Davidson diagonalization with overlap
     ethr =  1.07E-06,  avg # of iterations =  5.4

     total cpu time spent up to now is        1.2 secs

     total energy              =     -24.07586406 Ry
     estimated scf accuracy    <       0.00001337 Ry

     iteration #  5     ecut=    95.00 Ry     beta= 0.70
     Davidson diagonalization with overlap
     ethr =  1.67E-07,  avg # of iterations =  2.4

     total cpu time spent up to now is        1.3 secs

     total energy              =     -24.07586720 Ry
     estimated scf accuracy    <       0.00000078 Ry

     iteration #  6     ecut=    95.00 Ry     beta= 0.70
     Davidson diagonalization with overlap
     ethr =  9.75E-09,  avg # of iterations =  2.9

     total cpu time spent up to now is        1.5 secs

     total energy              =     -24.07586747 Ry
     estimated scf accuracy    <       0.00000002 Ry

     iteration #  7     ecut=    95.00 Ry     beta= 0.70
     Davidson diagonalization with overlap
     ethr =  2.64E-10,  avg # of iterations =  4.3

     total cpu time spent up to now is        1.7 secs

     End of self-consistent calculation

          k =-0.1250 0.1250 0.1250 (  1215 PWs)   bands (ev):

    -7.7198  10.8719  12.6288  12.6288

          k =-0.3750 0.3750-0.1250 (  1205 PWs)   bands (ev):

    -5.4627   5.5313   8.9239  11.4400

          k = 0.3750-0.3750 0.6250 (  1198 PWs)   bands (ev):

    -2.4534   0.7558   9.1341   9.7584

          k = 0.1250-0.1250 0.3750 (  1208 PWs)   bands (ev):

    -6.5809   8.2020  10.4109  11.2497

          k =-0.1250 0.6250 0.1250 (  1208 PWs)   bands (ev):

    -4.3490   5.7715   8.0675   8.4360

          k = 0.6250-0.1250 0.8750 (  1195 PWs)   bands (ev):

    -0.4230   2.1278   4.8909   6.9476

          k = 0.3750 0.1250 0.6250 (  1204 PWs)   bands (ev):

    -3.3014   3.4520   7.0132   9.2058

          k =-0.1250-0.8750 0.1250 (  1205 PWs)   bands (ev):

    -1.1578   2.6210   5.9555   7.3664

          k =-0.3750 0.3750 0.3750 (  1191 PWs)   bands (ev):

    -4.3829   2.6299  10.7519  10.7519

          k = 0.3750-0.3750 1.1250 (  1194 PWs)   bands (ev):

    -1.4565   1.7169   5.5542   9.0814

     highest occupied level (ev):    12.6288

!    total energy              =     -24.07586749 Ry
     estimated scf accuracy    <          3.1E-09 Ry

     The total energy is the sum of the following terms:
     one-electron contribution =       8.19779653 Ry
     hartree contribution      =       1.93657154 Ry
     xc contribution           =      -8.67282262 Ry
     ewald contribution        =     -25.53741295 Ry

     convergence has been achieved in   7 iterations

     Writing output data file ./tmp/diamond.save/

     init_run     :      1.13s CPU      0.20s WALL (       1 calls)
     electrons    :     10.46s CPU      1.41s WALL (       1 calls)

     Called by init_run:
     wfcinit      :      1.01s CPU      0.14s WALL (       1 calls)
     potinit      :      0.03s CPU      0.02s WALL (       1 calls)
     hinit0       :      0.08s CPU      0.04s WALL (       1 calls)

     Called by electrons:
     c_bands      :      9.70s CPU      1.21s WALL (       7 calls)
     sum_band     :      0.40s CPU      0.09s WALL (       7 calls)
     v_of_rho     :      0.37s CPU      0.11s WALL (       8 calls)
     mix_rho      :      0.02s CPU      0.01s WALL (       7 calls)

     Called by c_bands:
     init_us_2    :      0.14s CPU      0.03s WALL (     150 calls)
     cegterg      :      9.33s CPU      1.16s WALL (      70 calls)

     Called by *egterg:
     cdiaghg      :      0.03s CPU      0.01s WALL (     281 calls)
     h_psi        :      8.29s CPU      1.02s WALL (     291 calls)
     g_psi        :      0.01s CPU      0.00s WALL (     211 calls)

     Called by h_psi:
     h_psi:calbec :      1.64s CPU      0.19s WALL (     291 calls)
     vloc_psi     :      4.06s CPU      0.50s WALL (     291 calls)
     add_vuspsi   :      2.54s CPU      0.33s WALL (     291 calls)

     General routines
     calbec       :      1.64s CPU      0.19s WALL (     291 calls)
     fft          :      0.09s CPU      0.04s WALL (      80 calls)
     ffts         :      0.01s CPU      0.00s WALL (       7 calls)
     fftw         :      3.70s CPU      0.48s WALL (    2286 calls)

     Parallel routines

     PWSCF        :     11.75s CPU      1.70s WALL


   This run was terminated on:  11:20:11  20Dec2023            

=------------------------------------------------------------------------------=
   JOB DONE.
=------------------------------------------------------------------------------=
