
     Program PWSCF v.6.6 starts on 20Dec2023 at 11:20:11 

     This program is part of the open-source Quantum ESPRESSO suite
     for quantum simulation of materials; please cite
         "P. Giannozzi et al., J. Phys.:Condens. Matter 21 395502 (2009);
         "P. Giannozzi et al., J. Phys.:Condens. Matter 29 465901 (2017);
          URL http://www.quantum-espresso.org", 
     in publications or presentations arising from this work. More details at
     http://www.quantum-espresso.org/quote

     Parallel version (MPI), running on     1 processors

     MPI processes distributed on     1 nodes
     Fft bands division:     nmany     =       1
     Waiting for input...
     Reading input from standard input

     Current dimensions of program PWSCF are:
     Max number of different atomic species (ntypx) = 10
     Max number of k-points (npk) =  40000
     Max angular momentum in pseudopotentials (lmaxx) =  3

     Subspace diagonalization in iterative solution of the eigenvalue problem:
     a serial algorithm will be used


     G-vector sticks info
     --------------------
     sticks:   dense  smooth     PW     G-vecs:    dense   smooth      PW
     Sum         637     637    199                10417    10417    1807



     bravais-lattice index     =            2
     lattice parameter (alat)  =       6.7500  a.u.
     unit-cell volume          =      76.8867 (a.u.)^3
     number of atoms/cell      =            2
     number of atomic types    =            1
     number of electrons       =         8.00
     number of Kohn-Sham states=            4
     kinetic-energy cutoff     =     100.0000  Ry
     charge density cutoff     =     400.0000  Ry
     convergence threshold     =      1.0E-08
     mixing beta               =       0.7000
     number of iterations used =            8  plain     mixing
     Exchange-correlation= PBE
                           (   1   4   3   4   0   0   0)

     celldm(1)=   6.750000  celldm(2)=   0.000000  celldm(3)=   0.000000
     celldm(4)=   0.000000  celldm(5)=   0.000000  celldm(6)=   0.000000

     crystal axes: (cart. coord. in units of alat)
               a(1) = (  -0.500000   0.000000   0.500000 )  
               a(2) = (   0.000000   0.500000   0.500000 )  
               a(3) = (  -0.500000   0.500000   0.000000 )  

     reciprocal axes: (cart. coord. in units 2 pi/alat)
               b(1) = ( -1.000000 -1.000000  1.000000 )  
               b(2) = (  1.000000  1.000000  1.000000 )  
               b(3) = ( -1.000000  1.000000 -1.000000 )  


     PseudoPot. # 1 for C  read from file:
     ./C.UPF
     MD5 check sum: ead9220225bd72a2f9a48cc2a638047d
     Pseudo is Norm-conserving + core correction, Zval =  4.0
     Generated using ONCVPSP code by D. R. Hamann
     Using radial grid of 1248 points,  4 beta functions with: 
                l(1) =   0
                l(2) =   0
                l(3) =   1
                l(4) =   1

     atomic species   valence    mass     pseudopotential
        C              4.00    12.01070     C ( 1.00)

     48 Sym. Ops., with inversion, found (24 have fractional translation)



   Cartesian axes

     site n.     atom                  positions (alat units)
         1           C   tau(   1) = (   0.0000000   0.0000000   0.0000000  )
         2           C   tau(   2) = (  -0.2500000   0.2500000   0.2500000  )

     number of k points=    10
                       cart. coord. in units 2pi/alat
        k(    1) = (  -0.1250000   0.1250000   0.1250000), wk =   0.0625000
        k(    2) = (  -0.3750000   0.3750000  -0.1250000), wk =   0.1875000
        k(    3) = (   0.3750000  -0.3750000   0.6250000), wk =   0.1875000
        k(    4) = (   0.1250000  -0.1250000   0.3750000), wk =   0.1875000
        k(    5) = (  -0.1250000   0.6250000   0.1250000), wk =   0.1875000
        k(    6) = (   0.6250000  -0.1250000   0.8750000), wk =   0.3750000
        k(    7) = (   0.3750000   0.1250000   0.6250000), wk =   0.3750000
        k(    8) = (  -0.1250000  -0.8750000   0.1250000), wk =   0.1875000
        k(    9) = (  -0.3750000   0.3750000   0.3750000), wk =   0.0625000
        k(   10) = (   0.3750000  -0.3750000   1.1250000), wk =   0.1875000

     Dense  grid:    10417 G-vectors     FFT dimensions: (  32,  32,  32)

     Estimated max dynamical RAM per process >       8.55 MB

     Initial potential from superposition of free atoms

     starting charge    7.99991, renormalised to    8.00000
     Starting wfcs are    8 randomized atomic wfcs

     total cpu time spent up to now is        0.2 secs

     Self-consistent Calculation

     iteration #  1     ecut=   100.00 Ry     beta= 0.70
     Davidson diagonalization with overlap
     ethr =  1.00E-02,  avg # of iterations =  2.0

     total cpu time spent up to now is        0.3 secs

     total energy              =     -24.06796231 Ry
     estimated scf accuracy    <       0.10702501 Ry

     iteration #  2     ecut=   100.00 Ry     beta= 0.70
     Davidson diagonalization with overlap
     ethr =  1.34E-03,  avg # of iterations =  1.3

     total cpu time spent up to now is        0.4 secs

     total energy              =     -24.07427607 Ry
     estimated scf accuracy    <       0.00370468 Ry

     iteration #  3     ecut=   100.00 Ry     beta= 0.70
     Davidson diagonalization with overlap
     ethr =  4.63E-05,  avg # of iterations =  2.8

     total cpu time spent up to now is        0.6 secs

     total energy              =     -24.07575641 Ry
     estimated scf accuracy    <       0.00008645 Ry

     iteration #  4     ecut=   100.00 Ry     beta= 0.70
     Davidson diagonalization with overlap
     ethr =  1.08E-06,  avg # of iterations =  5.2

     total cpu time spent up to now is        1.1 secs

     total energy              =     -24.07586462 Ry
     estimated scf accuracy    <       0.00001329 Ry

     iteration #  5     ecut=   100.00 Ry     beta= 0.70
     Davidson diagonalization with overlap
     ethr =  1.66E-07,  avg # of iterations =  2.3

     total cpu time spent up to now is        1.2 secs

     total energy              =     -24.07586795 Ry
     estimated scf accuracy    <       0.00000071 Ry

     iteration #  6     ecut=   100.00 Ry     beta= 0.70
     Davidson diagonalization with overlap
     ethr =  8.88E-09,  avg # of iterations =  3.7

     total cpu time spent up to now is        1.4 secs

     total energy              =     -24.07586829 Ry
     estimated scf accuracy    <       0.00000001 Ry

     iteration #  7     ecut=   100.00 Ry     beta= 0.70
     Davidson diagonalization with overlap
     ethr =  1.36E-10,  avg # of iterations =  4.6

     total cpu time spent up to now is        1.5 secs

     End of self-consistent calculation

          k =-0.1250 0.1250 0.1250 (  1303 PWs)   bands (ev):

    -7.7197  10.8721  12.6290  12.6290

          k =-0.3750 0.3750-0.1250 (  1305 PWs)   bands (ev):

    -5.4626   5.5315   8.9241  11.4403

          k = 0.3750-0.3750 0.6250 (  1300 PWs)   bands (ev):

    -2.4532   0.7560   9.1344   9.7586

          k = 0.1250-0.1250 0.3750 (  1312 PWs)   bands (ev):

    -6.5807   8.2023  10.4112  11.2499

          k =-0.1250 0.6250 0.1250 (  1297 PWs)   bands (ev):

    -4.3488   5.7717   8.0678   8.4362

          k = 0.6250-0.1250 0.8750 (  1293 PWs)   bands (ev):

    -0.4228   2.1280   4.8910   6.9478

          k = 0.3750 0.1250 0.6250 (  1299 PWs)   bands (ev):

    -3.3012   3.4522   7.0134   9.2061

          k =-0.1250-0.8750 0.1250 (  1299 PWs)   bands (ev):

    -1.1576   2.6212   5.9557   7.3666

          k =-0.3750 0.3750 0.3750 (  1299 PWs)   bands (ev):

    -4.3827   2.6301  10.7521  10.7521

          k = 0.3750-0.3750 1.1250 (  1291 PWs)   bands (ev):

    -1.4563   1.7171   5.5544   9.0816

     highest occupied level (ev):    12.6290

!    total energy              =     -24.07586831 Ry
     estimated scf accuracy    <          4.4E-09 Ry

     The total energy is the sum of the following terms:
     one-electron contribution =       8.19782208 Ry
     hartree contribution      =       1.93652230 Ry
     xc contribution           =      -8.67279974 Ry
     ewald contribution        =     -25.53741295 Ry

     convergence has been achieved in   7 iterations

     Writing output data file ./tmp/diamond.save/

     init_run     :      0.63s CPU      0.12s WALL (       1 calls)
     electrons    :     10.87s CPU      1.31s WALL (       1 calls)

     Called by init_run:
     wfcinit      :      0.51s CPU      0.06s WALL (       1 calls)
     potinit      :      0.03s CPU      0.01s WALL (       1 calls)
     hinit0       :      0.08s CPU      0.04s WALL (       1 calls)

     Called by electrons:
     c_bands      :      9.90s CPU      1.11s WALL (       7 calls)
     sum_band     :      0.67s CPU      0.10s WALL (       7 calls)
     v_of_rho     :      0.26s CPU      0.10s WALL (       8 calls)
     mix_rho      :      0.04s CPU      0.01s WALL (       7 calls)

     Called by c_bands:
     init_us_2    :      0.15s CPU      0.02s WALL (     150 calls)
     cegterg      :      9.59s CPU      1.07s WALL (      70 calls)

     Called by *egterg:
     cdiaghg      :      0.10s CPU      0.01s WALL (     289 calls)
     h_psi        :      8.09s CPU      0.89s WALL (     299 calls)
     g_psi        :      0.01s CPU      0.00s WALL (     219 calls)

     Called by h_psi:
     h_psi:calbec :      1.72s CPU      0.18s WALL (     299 calls)
     vloc_psi     :      4.60s CPU      0.51s WALL (     299 calls)
     add_vuspsi   :      1.75s CPU      0.19s WALL (     299 calls)

     General routines
     calbec       :      1.72s CPU      0.18s WALL (     299 calls)
     fft          :      0.12s CPU      0.04s WALL (      80 calls)
     ffts         :      0.02s CPU      0.00s WALL (       7 calls)
     fftw         :      4.25s CPU      0.48s WALL (    2338 calls)

     Parallel routines

     PWSCF        :     11.65s CPU      1.53s WALL


   This run was terminated on:  11:20:12  20Dec2023            

=------------------------------------------------------------------------------=
   JOB DONE.
=------------------------------------------------------------------------------=
