
     Program PWSCF v.6.6 starts on 20Dec2023 at 11:20: 2 

     This program is part of the open-source Quantum ESPRESSO suite
     for quantum simulation of materials; please cite
         "P. Giannozzi et al., J. Phys.:Condens. Matter 21 395502 (2009);
         "P. Giannozzi et al., J. Phys.:Condens. Matter 29 465901 (2017);
          URL http://www.quantum-espresso.org", 
     in publications or presentations arising from this work. More details at
     http://www.quantum-espresso.org/quote

     Parallel version (MPI), running on     1 processors

     MPI processes distributed on     1 nodes
     Fft bands division:     nmany     =       1
     Waiting for input...
     Reading input from standard input

     Current dimensions of program PWSCF are:
     Max number of different atomic species (ntypx) = 10
     Max number of k-points (npk) =  40000
     Max angular momentum in pseudopotentials (lmaxx) =  3

     Subspace diagonalization in iterative solution of the eigenvalue problem:
     a serial algorithm will be used


     G-vector sticks info
     --------------------
     sticks:   dense  smooth     PW     G-vecs:    dense   smooth      PW
     Sum         439     439    151                 6081     6081    1139



     bravais-lattice index     =            2
     lattice parameter (alat)  =       6.7500  a.u.
     unit-cell volume          =      76.8867 (a.u.)^3
     number of atoms/cell      =            2
     number of atomic types    =            1
     number of electrons       =         8.00
     number of Kohn-Sham states=            4
     kinetic-energy cutoff     =      70.0000  Ry
     charge density cutoff     =     280.0000  Ry
     convergence threshold     =      1.0E-08
     mixing beta               =       0.7000
     number of iterations used =            8  plain     mixing
     Exchange-correlation= PBE
                           (   1   4   3   4   0   0   0)

     celldm(1)=   6.750000  celldm(2)=   0.000000  celldm(3)=   0.000000
     celldm(4)=   0.000000  celldm(5)=   0.000000  celldm(6)=   0.000000

     crystal axes: (cart. coord. in units of alat)
               a(1) = (  -0.500000   0.000000   0.500000 )  
               a(2) = (   0.000000   0.500000   0.500000 )  
               a(3) = (  -0.500000   0.500000   0.000000 )  

     reciprocal axes: (cart. coord. in units 2 pi/alat)
               b(1) = ( -1.000000 -1.000000  1.000000 )  
               b(2) = (  1.000000  1.000000  1.000000 )  
               b(3) = ( -1.000000  1.000000 -1.000000 )  


     PseudoPot. # 1 for C  read from file:
     ./C.UPF
     MD5 check sum: ead9220225bd72a2f9a48cc2a638047d
     Pseudo is Norm-conserving + core correction, Zval =  4.0
     Generated using ONCVPSP code by D. R. Hamann
     Using radial grid of 1248 points,  4 beta functions with: 
                l(1) =   0
                l(2) =   0
                l(3) =   1
                l(4) =   1

     atomic species   valence    mass     pseudopotential
        C              4.00    12.01070     C ( 1.00)

     48 Sym. Ops., with inversion, found (24 have fractional translation)



   Cartesian axes

     site n.     atom                  positions (alat units)
         1           C   tau(   1) = (   0.0000000   0.0000000   0.0000000  )
         2           C   tau(   2) = (  -0.2500000   0.2500000   0.2500000  )

     number of k points=    10
                       cart. coord. in units 2pi/alat
        k(    1) = (  -0.1250000   0.1250000   0.1250000), wk =   0.0625000
        k(    2) = (  -0.3750000   0.3750000  -0.1250000), wk =   0.1875000
        k(    3) = (   0.3750000  -0.3750000   0.6250000), wk =   0.1875000
        k(    4) = (   0.1250000  -0.1250000   0.3750000), wk =   0.1875000
        k(    5) = (  -0.1250000   0.6250000   0.1250000), wk =   0.1875000
        k(    6) = (   0.6250000  -0.1250000   0.8750000), wk =   0.3750000
        k(    7) = (   0.3750000   0.1250000   0.6250000), wk =   0.3750000
        k(    8) = (  -0.1250000  -0.8750000   0.1250000), wk =   0.1875000
        k(    9) = (  -0.3750000   0.3750000   0.3750000), wk =   0.0625000
        k(   10) = (   0.3750000  -0.3750000   1.1250000), wk =   0.1875000

     Dense  grid:     6081 G-vectors     FFT dimensions: (  32,  32,  32)

     Estimated max dynamical RAM per process >       6.05 MB

     Initial potential from superposition of free atoms

     starting charge    7.99991, renormalised to    8.00000
     Starting wfcs are    8 randomized atomic wfcs

     total cpu time spent up to now is        0.2 secs

     Self-consistent Calculation

     iteration #  1     ecut=    70.00 Ry     beta= 0.70
     Davidson diagonalization with overlap
     ethr =  1.00E-02,  avg # of iterations =  2.0

     total cpu time spent up to now is        0.3 secs

     total energy              =     -24.06658322 Ry
     estimated scf accuracy    <       0.10700466 Ry

     iteration #  2     ecut=    70.00 Ry     beta= 0.70
     Davidson diagonalization with overlap
     ethr =  1.34E-03,  avg # of iterations =  1.3

     total cpu time spent up to now is        0.3 secs

     total energy              =     -24.07299878 Ry
     estimated scf accuracy    <       0.00368772 Ry

     iteration #  3     ecut=    70.00 Ry     beta= 0.70
     Davidson diagonalization with overlap
     ethr =  4.61E-05,  avg # of iterations =  2.8

     total cpu time spent up to now is        0.5 secs

     total energy              =     -24.07449318 Ry
     estimated scf accuracy    <       0.00008512 Ry

     iteration #  4     ecut=    70.00 Ry     beta= 0.70
     Davidson diagonalization with overlap
     ethr =  1.06E-06,  avg # of iterations =  5.2

     total cpu time spent up to now is        0.8 secs

     total energy              =     -24.07460404 Ry
     estimated scf accuracy    <       0.00001240 Ry

     iteration #  5     ecut=    70.00 Ry     beta= 0.70
     Davidson diagonalization with overlap
     ethr =  1.55E-07,  avg # of iterations =  2.7

     total cpu time spent up to now is        1.1 secs

     total energy              =     -24.07460756 Ry
     estimated scf accuracy    <       0.00000076 Ry

     iteration #  6     ecut=    70.00 Ry     beta= 0.70
     Davidson diagonalization with overlap
     ethr =  9.55E-09,  avg # of iterations =  3.6

     total cpu time spent up to now is        1.2 secs

     End of self-consistent calculation

          k =-0.1250 0.1250 0.1250 (   752 PWs)   bands (ev):

    -7.7200  10.8732  12.6334  12.6334

          k =-0.3750 0.3750-0.1250 (   757 PWs)   bands (ev):

    -5.4630   5.5322   8.9258  11.4433

          k = 0.3750-0.3750 0.6250 (   760 PWs)   bands (ev):

    -2.4537   0.7564   9.1357   9.7599

          k = 0.1250-0.1250 0.3750 (   766 PWs)   bands (ev):

    -6.5810   8.2034  10.4130  11.2515

          k =-0.1250 0.6250 0.1250 (   762 PWs)   bands (ev):

    -4.3493   5.7720   8.0690   8.4375

          k = 0.6250-0.1250 0.8750 (   754 PWs)   bands (ev):

    -0.4231   2.1282   4.8921   6.9489

          k = 0.3750 0.1250 0.6250 (   759 PWs)   bands (ev):

    -3.3016   3.4525   7.0148   9.2076

          k =-0.1250-0.8750 0.1250 (   759 PWs)   bands (ev):

    -1.1579   2.6213   5.9566   7.3673

          k =-0.3750 0.3750 0.3750 (   763 PWs)   bands (ev):

    -4.3831   2.6304  10.7536  10.7536

          k = 0.3750-0.3750 1.1250 (   759 PWs)   bands (ev):

    -1.4567   1.7176   5.5553   9.0824

     highest occupied level (ev):    12.6334

!    total energy              =     -24.07460787 Ry
     estimated scf accuracy    <          9.2E-09 Ry

     The total energy is the sum of the following terms:
     one-electron contribution =       8.19904322 Ry
     hartree contribution      =       1.93599499 Ry
     xc contribution           =      -8.67223313 Ry
     ewald contribution        =     -25.53741295 Ry

     convergence has been achieved in   6 iterations

     Writing output data file ./tmp/diamond.save/

     init_run     :      0.44s CPU      0.12s WALL (       1 calls)
     electrons    :      7.84s CPU      1.00s WALL (       1 calls)

     Called by init_run:
     wfcinit      :      0.33s CPU      0.05s WALL (       1 calls)
     potinit      :      0.02s CPU      0.01s WALL (       1 calls)
     hinit0       :      0.08s CPU      0.04s WALL (       1 calls)

     Called by electrons:
     c_bands      :      6.99s CPU      0.85s WALL (       6 calls)
     sum_band     :      0.71s CPU      0.07s WALL (       6 calls)
     v_of_rho     :      0.15s CPU      0.08s WALL (       7 calls)
     mix_rho      :      0.01s CPU      0.00s WALL (       6 calls)

     Called by c_bands:
     init_us_2    :      0.12s CPU      0.01s WALL (     130 calls)
     cegterg      :      6.85s CPU      0.83s WALL (      60 calls)

     Called by *egterg:
     cdiaghg      :      0.04s CPU      0.01s WALL (     236 calls)
     h_psi        :      6.89s CPU      0.85s WALL (     246 calls)
     g_psi        :      0.00s CPU      0.00s WALL (     176 calls)

     Called by h_psi:
     h_psi:calbec :      1.91s CPU      0.21s WALL (     246 calls)
     vloc_psi     :      3.05s CPU      0.41s WALL (     246 calls)
     add_vuspsi   :      1.91s CPU      0.22s WALL (     246 calls)

     General routines
     calbec       :      1.90s CPU      0.21s WALL (     246 calls)
     fft          :      0.06s CPU      0.03s WALL (      70 calls)
     ffts         :      0.04s CPU      0.00s WALL (       6 calls)
     fftw         :      3.05s CPU      0.40s WALL (    1970 calls)

     Parallel routines

     PWSCF        :      8.42s CPU      1.19s WALL


   This run was terminated on:  11:20: 3  20Dec2023            

=------------------------------------------------------------------------------=
   JOB DONE.
=------------------------------------------------------------------------------=
