
     Program PWSCF v.6.6 starts on  5Jan2024 at 11: 6:27 

     This program is part of the open-source Quantum ESPRESSO suite
     for quantum simulation of materials; please cite
         "P. Giannozzi et al., J. Phys.:Condens. Matter 21 395502 (2009);
         "P. Giannozzi et al., J. Phys.:Condens. Matter 29 465901 (2017);
          URL http://www.quantum-espresso.org", 
     in publications or presentations arising from this work. More details at
     http://www.quantum-espresso.org/quote

     Parallel version (MPI), running on     1 processors

     MPI processes distributed on     1 nodes
     Fft bands division:     nmany     =       1
     Waiting for input...
     Reading input from standard input

     Current dimensions of program PWSCF are:
     Max number of different atomic species (ntypx) = 10
     Max number of k-points (npk) =  40000
     Max angular momentum in pseudopotentials (lmaxx) =  3

     Subspace diagonalization in iterative solution of the eigenvalue problem:
     a serial algorithm will be used


     G-vector sticks info
     --------------------
     sticks:   dense  smooth     PW     G-vecs:    dense   smooth      PW
     Sum         379     379    121                 4909     4909     941



     bravais-lattice index     =            2
     lattice parameter (alat)  =       6.7500  a.u.
     unit-cell volume          =      76.8867 (a.u.)^3
     number of atoms/cell      =            2
     number of atomic types    =            1
     number of electrons       =         8.00
     number of Kohn-Sham states=            4
     kinetic-energy cutoff     =      60.0000  Ry
     charge density cutoff     =     240.0000  Ry
     convergence threshold     =      1.0E-08
     mixing beta               =       0.7000
     number of iterations used =            8  plain     mixing
     Exchange-correlation= PBE
                           (   1   4   3   4   0   0   0)

     celldm(1)=   6.750000  celldm(2)=   0.000000  celldm(3)=   0.000000
     celldm(4)=   0.000000  celldm(5)=   0.000000  celldm(6)=   0.000000

     crystal axes: (cart. coord. in units of alat)
               a(1) = (  -0.500000   0.000000   0.500000 )  
               a(2) = (   0.000000   0.500000   0.500000 )  
               a(3) = (  -0.500000   0.500000   0.000000 )  

     reciprocal axes: (cart. coord. in units 2 pi/alat)
               b(1) = ( -1.000000 -1.000000  1.000000 )  
               b(2) = (  1.000000  1.000000  1.000000 )  
               b(3) = ( -1.000000  1.000000 -1.000000 )  


     PseudoPot. # 1 for C  read from file:
     ./C.UPF
     MD5 check sum: ead9220225bd72a2f9a48cc2a638047d
     Pseudo is Norm-conserving + core correction, Zval =  4.0
     Generated using ONCVPSP code by D. R. Hamann
     Using radial grid of 1248 points,  4 beta functions with: 
                l(1) =   0
                l(2) =   0
                l(3) =   1
                l(4) =   1

     atomic species   valence    mass     pseudopotential
        C              4.00    12.01070     C ( 1.00)

     48 Sym. Ops., with inversion, found (24 have fractional translation)



   Cartesian axes

     site n.     atom                  positions (alat units)
         1           C   tau(   1) = (   0.0000000   0.0000000   0.0000000  )
         2           C   tau(   2) = (  -0.2500000   0.2500000   0.2500000  )

     number of k points=    10
                       cart. coord. in units 2pi/alat
        k(    1) = (  -0.1250000   0.1250000   0.1250000), wk =   0.0625000
        k(    2) = (  -0.3750000   0.3750000  -0.1250000), wk =   0.1875000
        k(    3) = (   0.3750000  -0.3750000   0.6250000), wk =   0.1875000
        k(    4) = (   0.1250000  -0.1250000   0.3750000), wk =   0.1875000
        k(    5) = (  -0.1250000   0.6250000   0.1250000), wk =   0.1875000
        k(    6) = (   0.6250000  -0.1250000   0.8750000), wk =   0.3750000
        k(    7) = (   0.3750000   0.1250000   0.6250000), wk =   0.3750000
        k(    8) = (  -0.1250000  -0.8750000   0.1250000), wk =   0.1875000
        k(    9) = (  -0.3750000   0.3750000   0.3750000), wk =   0.0625000
        k(   10) = (   0.3750000  -0.3750000   1.1250000), wk =   0.1875000

     Dense  grid:     4909 G-vectors     FFT dimensions: (  24,  24,  24)

     Estimated max dynamical RAM per process >       4.05 MB

     Initial potential from superposition of free atoms

     starting charge    7.99991, renormalised to    8.00000
     Starting wfcs are    8 randomized atomic wfcs

     total cpu time spent up to now is        0.2 secs

     Self-consistent Calculation

     iteration #  1     ecut=    60.00 Ry     beta= 0.70
     Davidson diagonalization with overlap
     ethr =  1.00E-02,  avg # of iterations =  2.0

     total cpu time spent up to now is        0.2 secs

     total energy              =     -24.06096764 Ry
     estimated scf accuracy    <       0.10613663 Ry

     iteration #  2     ecut=    60.00 Ry     beta= 0.70
     Davidson diagonalization with overlap
     ethr =  1.33E-03,  avg # of iterations =  1.3

     total cpu time spent up to now is        0.3 secs

     total energy              =     -24.06721514 Ry
     estimated scf accuracy    <       0.00371024 Ry

     iteration #  3     ecut=    60.00 Ry     beta= 0.70
     Davidson diagonalization with overlap
     ethr =  4.64E-05,  avg # of iterations =  2.8

     total cpu time spent up to now is        0.3 secs

     total energy              =     -24.06868639 Ry
     estimated scf accuracy    <       0.00008339 Ry

     iteration #  4     ecut=    60.00 Ry     beta= 0.70
     Davidson diagonalization with overlap
     ethr =  1.04E-06,  avg # of iterations =  5.4

     total cpu time spent up to now is        0.4 secs

     total energy              =     -24.06879543 Ry
     estimated scf accuracy    <       0.00001214 Ry

     iteration #  5     ecut=    60.00 Ry     beta= 0.70
     Davidson diagonalization with overlap
     ethr =  1.52E-07,  avg # of iterations =  2.6

     total cpu time spent up to now is        0.8 secs

     total energy              =     -24.06879848 Ry
     estimated scf accuracy    <       0.00000076 Ry

     iteration #  6     ecut=    60.00 Ry     beta= 0.70
     Davidson diagonalization with overlap
     ethr =  9.48E-09,  avg # of iterations =  3.2

     total cpu time spent up to now is        1.0 secs

     total energy              =     -24.06879871 Ry
     estimated scf accuracy    <       0.00000001 Ry

     iteration #  7     ecut=    60.00 Ry     beta= 0.70
     Davidson diagonalization with overlap
     ethr =  1.82E-10,  avg # of iterations =  4.6

     total cpu time spent up to now is        1.3 secs

     End of self-consistent calculation

          k =-0.1250 0.1250 0.1250 (   591 PWs)   bands (ev):

    -7.7220  10.8863  12.6434  12.6434

          k =-0.3750 0.3750-0.1250 (   603 PWs)   bands (ev):

    -5.4649   5.5344   8.9315  11.4533

          k = 0.3750-0.3750 0.6250 (   598 PWs)   bands (ev):

    -2.4558   0.7574   9.1438   9.7706

          k = 0.1250-0.1250 0.3750 (   598 PWs)   bands (ev):

    -6.5832   8.2091  10.4239  11.2601

          k =-0.1250 0.6250 0.1250 (   607 PWs)   bands (ev):

    -4.3509   5.7735   8.0745   8.4455

          k = 0.6250-0.1250 0.8750 (   607 PWs)   bands (ev):

    -0.4255   2.1279   4.8970   6.9564

          k = 0.3750 0.1250 0.6250 (   605 PWs)   bands (ev):

    -3.3031   3.4540   7.0179   9.2161

          k =-0.1250-0.8750 0.1250 (   609 PWs)   bands (ev):

    -1.1600   2.6205   5.9632   7.3745

          k =-0.3750 0.3750 0.3750 (   604 PWs)   bands (ev):

    -4.3850   2.6305  10.7642  10.7642

          k = 0.3750-0.3750 1.1250 (   599 PWs)   bands (ev):

    -1.4586   1.7185   5.5595   9.0936

     highest occupied level (ev):    12.6434

!    total energy              =     -24.06879872 Ry
     estimated scf accuracy    <          2.2E-09 Ry

     The total energy is the sum of the following terms:
     one-electron contribution =       8.20492327 Ry
     hartree contribution      =       1.93365254 Ry
     xc contribution           =      -8.66996158 Ry
     ewald contribution        =     -25.53741295 Ry

     convergence has been achieved in   7 iterations

     Writing output data file ./tmp/diamond.save/

     init_run     :      0.50s CPU      0.11s WALL (       1 calls)
     electrons    :      7.87s CPU      1.15s WALL (       1 calls)

     Called by init_run:
     wfcinit      :      0.40s CPU      0.05s WALL (       1 calls)
     potinit      :      0.01s CPU      0.00s WALL (       1 calls)
     hinit0       :      0.08s CPU      0.05s WALL (       1 calls)

     Called by electrons:
     c_bands      :      7.49s CPU      1.08s WALL (       7 calls)
     sum_band     :      0.25s CPU      0.03s WALL (       7 calls)
     v_of_rho     :      0.12s CPU      0.03s WALL (       8 calls)
     mix_rho      :      0.01s CPU      0.00s WALL (       7 calls)

     Called by c_bands:
     init_us_2    :      0.05s CPU      0.01s WALL (     150 calls)
     cegterg      :      7.37s CPU      1.06s WALL (      70 calls)

     Called by *egterg:
     cdiaghg      :      0.07s CPU      0.01s WALL (     289 calls)
     h_psi        :      7.46s CPU      1.07s WALL (     299 calls)
     g_psi        :      0.01s CPU      0.00s WALL (     219 calls)

     Called by h_psi:
     h_psi:calbec :      3.37s CPU      0.49s WALL (     299 calls)
     vloc_psi     :      1.50s CPU      0.20s WALL (     299 calls)
     add_vuspsi   :      2.59s CPU      0.37s WALL (     299 calls)

     General routines
     calbec       :      3.35s CPU      0.49s WALL (     299 calls)
     fft          :      0.04s CPU      0.01s WALL (      80 calls)
     ffts         :      0.03s CPU      0.00s WALL (       7 calls)
     fftw         :      1.39s CPU      0.19s WALL (    2294 calls)

     Parallel routines

     PWSCF        :      8.53s CPU      1.32s WALL


   This run was terminated on:  11: 6:29   5Jan2024            

=------------------------------------------------------------------------------=
   JOB DONE.
=------------------------------------------------------------------------------=
