
     Program PWSCF v.6.6 starts on  5Jan2024 at 11: 9: 1 

     This program is part of the open-source Quantum ESPRESSO suite
     for quantum simulation of materials; please cite
         "P. Giannozzi et al., J. Phys.:Condens. Matter 21 395502 (2009);
         "P. Giannozzi et al., J. Phys.:Condens. Matter 29 465901 (2017);
          URL http://www.quantum-espresso.org", 
     in publications or presentations arising from this work. More details at
     http://www.quantum-espresso.org/quote

     Parallel version (MPI), running on     1 processors

     MPI processes distributed on     1 nodes
     Fft bands division:     nmany     =       1
     Reading input from k-in_6.in

     Current dimensions of program PWSCF are:
     Max number of different atomic species (ntypx) = 10
     Max number of k-points (npk) =  40000
     Max angular momentum in pseudopotentials (lmaxx) =  3

     Subspace diagonalization in iterative solution of the eigenvalue problem:
     a serial algorithm will be used


     G-vector sticks info
     --------------------
     sticks:   dense  smooth     PW     G-vecs:    dense   smooth      PW
     Sum         475     475    151                 6735     6735    1243



     bravais-lattice index     =            2
     lattice parameter (alat)  =       6.7500  a.u.
     unit-cell volume          =      76.8867 (a.u.)^3
     number of atoms/cell      =            2
     number of atomic types    =            1
     number of electrons       =         8.00
     number of Kohn-Sham states=            4
     kinetic-energy cutoff     =      75.0000  Ry
     charge density cutoff     =     300.0000  Ry
     convergence threshold     =      1.0E-08
     mixing beta               =       0.7000
     number of iterations used =            8  plain     mixing
     Exchange-correlation= PBE
                           (   1   4   3   4   0   0   0)

     celldm(1)=   6.750000  celldm(2)=   0.000000  celldm(3)=   0.000000
     celldm(4)=   0.000000  celldm(5)=   0.000000  celldm(6)=   0.000000

     crystal axes: (cart. coord. in units of alat)
               a(1) = (  -0.500000   0.000000   0.500000 )  
               a(2) = (   0.000000   0.500000   0.500000 )  
               a(3) = (  -0.500000   0.500000   0.000000 )  

     reciprocal axes: (cart. coord. in units 2 pi/alat)
               b(1) = ( -1.000000 -1.000000  1.000000 )  
               b(2) = (  1.000000  1.000000  1.000000 )  
               b(3) = ( -1.000000  1.000000 -1.000000 )  


     PseudoPot. # 1 for C  read from file:
     ./C.UPF
     MD5 check sum: ead9220225bd72a2f9a48cc2a638047d
     Pseudo is Norm-conserving + core correction, Zval =  4.0
     Generated using ONCVPSP code by D. R. Hamann
     Using radial grid of 1248 points,  4 beta functions with: 
                l(1) =   0
                l(2) =   0
                l(3) =   1
                l(4) =   1

     atomic species   valence    mass     pseudopotential
        C              4.00    12.01070     C ( 1.00)

     48 Sym. Ops., with inversion, found (24 have fractional translation)



   Cartesian axes

     site n.     atom                  positions (alat units)
         1           C   tau(   1) = (   0.0000000   0.0000000   0.0000000  )
         2           C   tau(   2) = (  -0.2500000   0.2500000   0.2500000  )

     number of k points=    28
                       cart. coord. in units 2pi/alat
        k(    1) = (  -0.0833333   0.0833333   0.0833333), wk =   0.0185185
        k(    2) = (  -0.2500000   0.2500000  -0.0833333), wk =   0.0555556
        k(    3) = (  -0.4166667   0.4166667  -0.2500000), wk =   0.0555556
        k(    4) = (   0.4166667  -0.4166667   0.5833333), wk =   0.0555556
        k(    5) = (   0.2500000  -0.2500000   0.4166667), wk =   0.0555556
        k(    6) = (   0.0833333  -0.0833333   0.2500000), wk =   0.0555556
        k(    7) = (  -0.0833333   0.4166667   0.0833333), wk =   0.0555556
        k(    8) = (  -0.2500000   0.5833333  -0.0833333), wk =   0.1111111
        k(    9) = (   0.5833333  -0.2500000   0.7500000), wk =   0.1111111
        k(   10) = (   0.4166667  -0.0833333   0.5833333), wk =   0.1111111
        k(   11) = (   0.2500000   0.0833333   0.4166667), wk =   0.1111111
        k(   12) = (  -0.0833333   0.7500000   0.0833333), wk =   0.0555556
        k(   13) = (   0.7500000  -0.0833333   0.9166667), wk =   0.1111111
        k(   14) = (   0.5833333   0.0833333   0.7500000), wk =   0.1111111
        k(   15) = (   0.4166667   0.2500000   0.5833333), wk =   0.1111111
        k(   16) = (  -0.0833333  -0.9166667   0.0833333), wk =   0.0555556
        k(   17) = (  -0.2500000  -0.7500000  -0.0833333), wk =   0.1111111
        k(   18) = (  -0.0833333  -0.5833333   0.0833333), wk =   0.0555556
        k(   19) = (  -0.2500000   0.2500000   0.2500000), wk =   0.0185185
        k(   20) = (  -0.4166667   0.4166667   0.0833333), wk =   0.0555556
        k(   21) = (   0.4166667  -0.4166667   0.9166667), wk =   0.0555556
        k(   22) = (   0.2500000  -0.2500000   0.7500000), wk =   0.0555556
        k(   23) = (  -0.2500000   0.5833333   0.2500000), wk =   0.0555556
        k(   24) = (   0.5833333  -0.2500000   1.0833333), wk =   0.1111111
        k(   25) = (   0.4166667  -0.0833333   0.9166667), wk =   0.1111111
        k(   26) = (  -0.2500000  -1.0833333   0.2500000), wk =   0.0555556
        k(   27) = (  -0.4166667   0.4166667   0.4166667), wk =   0.0185185
        k(   28) = (   0.4166667  -0.4166667   1.2500000), wk =   0.0555556

     Dense  grid:     6735 G-vectors     FFT dimensions: (  32,  32,  32)

     Estimated max dynamical RAM per process >       7.36 MB

     Initial potential from superposition of free atoms

     starting charge    7.99991, renormalised to    8.00000
     Starting wfcs are    8 randomized atomic wfcs

     total cpu time spent up to now is        0.3 secs

     Self-consistent Calculation

     iteration #  1     ecut=    75.00 Ry     beta= 0.70
     Davidson diagonalization with overlap
     ethr =  1.00E-02,  avg # of iterations =  2.0

     total cpu time spent up to now is        0.9 secs

     total energy              =     -24.06757125 Ry
     estimated scf accuracy    <       0.10693698 Ry

     iteration #  2     ecut=    75.00 Ry     beta= 0.70
     Davidson diagonalization with overlap
     ethr =  1.34E-03,  avg # of iterations =  1.3

     total cpu time spent up to now is        1.4 secs

     total energy              =     -24.07383258 Ry
     estimated scf accuracy    <       0.00370880 Ry

     iteration #  3     ecut=    75.00 Ry     beta= 0.70
     Davidson diagonalization with overlap
     ethr =  4.64E-05,  avg # of iterations =  2.9

     total cpu time spent up to now is        1.8 secs

     total energy              =     -24.07534986 Ry
     estimated scf accuracy    <       0.00008377 Ry

     iteration #  4     ecut=    75.00 Ry     beta= 0.70
     Davidson diagonalization with overlap
     ethr =  1.05E-06,  avg # of iterations =  5.0

     total cpu time spent up to now is        2.3 secs

     total energy              =     -24.07544786 Ry
     estimated scf accuracy    <       0.00001203 Ry

     iteration #  5     ecut=    75.00 Ry     beta= 0.70
     Davidson diagonalization with overlap
     ethr =  1.50E-07,  avg # of iterations =  2.5

     total cpu time spent up to now is        2.6 secs

     total energy              =     -24.07545136 Ry
     estimated scf accuracy    <       0.00000093 Ry

     iteration #  6     ecut=    75.00 Ry     beta= 0.70
     Davidson diagonalization with overlap
     ethr =  1.17E-08,  avg # of iterations =  3.4

     total cpu time spent up to now is        2.9 secs

     total energy              =     -24.07545168 Ry
     estimated scf accuracy    <       0.00000001 Ry

     iteration #  7     ecut=    75.00 Ry     beta= 0.70
     Davidson diagonalization with overlap
     ethr =  1.34E-10,  avg # of iterations =  5.4

     total cpu time spent up to now is        3.3 secs

     End of self-consistent calculation

          k =-0.0833 0.0833 0.0833 (   872 PWs)   bands (ev):

    -7.9588  12.0580  12.9581  12.9581

          k =-0.2500 0.2500-0.0833 (   853 PWs)   bands (ev):

    -6.9436   8.6324  10.6055  12.3939

          k =-0.4167 0.4167-0.2500 (   842 PWs)   bands (ev):

    -4.4817   3.1864   9.6802  10.9482

          k = 0.4167-0.4167 0.5833 (   842 PWs)   bands (ev):

    -2.4427   0.3256   9.8344  10.1329

          k = 0.2500-0.2500 0.4167 (   848 PWs)   bands (ev):

    -5.4482   4.9408  10.3448  10.9254

          k = 0.0833-0.0833 0.2500 (   856 PWs)   bands (ev):

    -7.4496  10.3931  11.5724  12.3359

          k =-0.0833 0.4167 0.0833 (   852 PWs)   bands (ev):

    -6.4388   8.6270   9.9646  10.6132

          k =-0.2500 0.5833-0.0833 (   843 PWs)   bands (ev):

    -4.4623   5.4067   7.7090   9.3210

          k = 0.5833-0.2500 0.7500 (   840 PWs)   bands (ev):

    -1.5340   1.1834   6.9079   8.6126

          k = 0.4167-0.0833 0.5833 (   844 PWs)   bands (ev):

    -3.5213   3.8908   6.5039   9.7383

          k = 0.2500 0.0833 0.4167 (   845 PWs)   bands (ev):

    -5.9405   6.9101   9.1119  11.2770

          k =-0.0833 0.7500 0.0833 (   839 PWs)   bands (ev):

    -2.9995   4.6015   7.0787   7.6497

          k = 0.7500-0.0833 0.9167 (   840 PWs)   bands (ev):

    -0.3120   2.0594   5.2857   6.8804

          k = 0.5833 0.0833 0.7500 (   841 PWs)   bands (ev):

    -0.6953   1.9090   4.6737   8.0784

          k = 0.4167 0.2500 0.5833 (   839 PWs)   bands (ev):

    -3.0995   1.8530   8.5834   9.8735

          k =-0.0833-0.9167 0.0833 (   830 PWs)   bands (ev):

    -0.6666   1.9425   6.4439   7.1594

          k =-0.2500-0.7500-0.0833 (   843 PWs)   bands (ev):

    -2.5534   3.9811   6.3173   7.5939

          k =-0.0833-0.5833 0.0833 (   846 PWs)   bands (ev):

    -4.9441   6.8572   8.5481   8.6057

          k =-0.2500 0.2500 0.2500 (   851 PWs)   bands (ev):

    -6.4414   6.7036  11.5360  11.5360

          k =-0.4167 0.4167 0.0833 (   848 PWs)   bands (ev):

    -4.9570   5.2604   7.7517  11.1116

          k = 0.4167-0.4167 0.9167 (   845 PWs)   bands (ev):

    -2.1898   2.6502   5.4027   9.4366

          k = 0.2500-0.2500 0.7500 (   842 PWs)   bands (ev):

    -2.1500   2.5134   6.5540   8.4101

          k =-0.2500 0.5833 0.2500 (   843 PWs)   bands (ev):

    -3.9932   3.5256   9.0152   9.2326

          k = 0.5833-0.2500 1.0833 (   843 PWs)   bands (ev):

    -1.7151   2.8585   5.5027   7.7000

          k = 0.4167-0.0833 0.9167 (   845 PWs)   bands (ev):

     0.2014   1.9854   4.6386   6.2181

          k =-0.2500-1.0833 0.2500 (   835 PWs)   bands (ev):

    -0.1963   1.7996   4.3921   7.9785

          k =-0.4167 0.4167 0.4167 (   847 PWs)   bands (ev):

    -3.5735   1.4307  10.6013  10.6013

          k = 0.4167-0.4167 1.2500 (   840 PWs)   bands (ev):

    -1.9921   0.7815   7.8148   9.6953

     highest occupied level (ev):    12.9581

!    total energy              =     -24.07545170 Ry
     estimated scf accuracy    <          7.0E-10 Ry

     The total energy is the sum of the following terms:
     one-electron contribution =       8.19818239 Ry
     hartree contribution      =       1.93641052 Ry
     xc contribution           =      -8.67263166 Ry
     ewald contribution        =     -25.53741295 Ry

     convergence has been achieved in   7 iterations

     Writing output data file ./tmp/diamond.save/

     init_run     :      1.35s CPU      0.22s WALL (       1 calls)
     electrons    :     22.65s CPU      3.03s WALL (       1 calls)

     Called by init_run:
     wfcinit      :      1.22s CPU      0.15s WALL (       1 calls)
     potinit      :      0.03s CPU      0.02s WALL (       1 calls)
     hinit0       :      0.08s CPU      0.05s WALL (       1 calls)

     Called by electrons:
     c_bands      :     21.89s CPU      2.73s WALL (       7 calls)
     sum_band     :      0.60s CPU      0.21s WALL (       7 calls)
     v_of_rho     :      0.17s CPU      0.10s WALL (       8 calls)
     mix_rho      :      0.01s CPU      0.01s WALL (       7 calls)

     Called by c_bands:
     init_us_2    :      0.30s CPU      0.04s WALL (     420 calls)
     cegterg      :     21.27s CPU      2.66s WALL (     196 calls)

     Called by *egterg:
     cdiaghg      :      0.19s CPU      0.03s WALL (     824 calls)
     h_psi        :     21.28s CPU      2.68s WALL (     852 calls)
     g_psi        :      0.04s CPU      0.01s WALL (     628 calls)

     Called by h_psi:
     h_psi:calbec :      6.24s CPU      0.78s WALL (     852 calls)
     vloc_psi     :      9.16s CPU      1.16s WALL (     852 calls)
     add_vuspsi   :      5.82s CPU      0.72s WALL (     852 calls)

     General routines
     calbec       :      6.21s CPU      0.78s WALL (     852 calls)
     fft          :      0.08s CPU      0.05s WALL (      80 calls)
     ffts         :      0.01s CPU      0.00s WALL (       7 calls)
     fftw         :      8.15s CPU      1.12s WALL (    6554 calls)

     Parallel routines

     PWSCF        :     24.13s CPU      3.33s WALL


   This run was terminated on:  11: 9: 4   5Jan2024            

=------------------------------------------------------------------------------=
   JOB DONE.
=------------------------------------------------------------------------------=
