
     Program PWSCF v.6.6 starts on  5Jan2024 at 11: 8:58 

     This program is part of the open-source Quantum ESPRESSO suite
     for quantum simulation of materials; please cite
         "P. Giannozzi et al., J. Phys.:Condens. Matter 21 395502 (2009);
         "P. Giannozzi et al., J. Phys.:Condens. Matter 29 465901 (2017);
          URL http://www.quantum-espresso.org", 
     in publications or presentations arising from this work. More details at
     http://www.quantum-espresso.org/quote

     Parallel version (MPI), running on     1 processors

     MPI processes distributed on     1 nodes
     Fft bands division:     nmany     =       1
     Reading input from k-in_5.in

     Current dimensions of program PWSCF are:
     Max number of different atomic species (ntypx) = 10
     Max number of k-points (npk) =  40000
     Max angular momentum in pseudopotentials (lmaxx) =  3

     Subspace diagonalization in iterative solution of the eigenvalue problem:
     a serial algorithm will be used


     G-vector sticks info
     --------------------
     sticks:   dense  smooth     PW     G-vecs:    dense   smooth      PW
     Sum         475     475    151                 6735     6735    1243



     bravais-lattice index     =            2
     lattice parameter (alat)  =       6.7500  a.u.
     unit-cell volume          =      76.8867 (a.u.)^3
     number of atoms/cell      =            2
     number of atomic types    =            1
     number of electrons       =         8.00
     number of Kohn-Sham states=            4
     kinetic-energy cutoff     =      75.0000  Ry
     charge density cutoff     =     300.0000  Ry
     convergence threshold     =      1.0E-08
     mixing beta               =       0.7000
     number of iterations used =            8  plain     mixing
     Exchange-correlation= PBE
                           (   1   4   3   4   0   0   0)

     celldm(1)=   6.750000  celldm(2)=   0.000000  celldm(3)=   0.000000
     celldm(4)=   0.000000  celldm(5)=   0.000000  celldm(6)=   0.000000

     crystal axes: (cart. coord. in units of alat)
               a(1) = (  -0.500000   0.000000   0.500000 )  
               a(2) = (   0.000000   0.500000   0.500000 )  
               a(3) = (  -0.500000   0.500000   0.000000 )  

     reciprocal axes: (cart. coord. in units 2 pi/alat)
               b(1) = ( -1.000000 -1.000000  1.000000 )  
               b(2) = (  1.000000  1.000000  1.000000 )  
               b(3) = ( -1.000000  1.000000 -1.000000 )  


     PseudoPot. # 1 for C  read from file:
     ./C.UPF
     MD5 check sum: ead9220225bd72a2f9a48cc2a638047d
     Pseudo is Norm-conserving + core correction, Zval =  4.0
     Generated using ONCVPSP code by D. R. Hamann
     Using radial grid of 1248 points,  4 beta functions with: 
                l(1) =   0
                l(2) =   0
                l(3) =   1
                l(4) =   1

     atomic species   valence    mass     pseudopotential
        C              4.00    12.01070     C ( 1.00)

     48 Sym. Ops., with inversion, found (24 have fractional translation)



   Cartesian axes

     site n.     atom                  positions (alat units)
         1           C   tau(   1) = (   0.0000000   0.0000000   0.0000000  )
         2           C   tau(   2) = (  -0.2500000   0.2500000   0.2500000  )

     number of k points=    19
                       cart. coord. in units 2pi/alat
        k(    1) = (  -0.1000000   0.1000000   0.1000000), wk =   0.0320000
        k(    2) = (  -0.3000000   0.3000000  -0.1000000), wk =   0.0960000
        k(    3) = (   0.5000000  -0.5000000   0.7000000), wk =   0.0960000
        k(    4) = (   0.3000000  -0.3000000   0.5000000), wk =   0.0960000
        k(    5) = (   0.1000000  -0.1000000   0.3000000), wk =   0.0960000
        k(    6) = (  -0.1000000   0.5000000   0.1000000), wk =   0.0960000
        k(    7) = (   0.7000000  -0.3000000   0.9000000), wk =   0.1920000
        k(    8) = (   0.5000000  -0.1000000   0.7000000), wk =   0.1920000
        k(    9) = (   0.3000000   0.1000000   0.5000000), wk =   0.1920000
        k(   10) = (  -0.1000000  -1.1000000   0.1000000), wk =   0.0960000
        k(   11) = (  -0.3000000  -0.9000000  -0.1000000), wk =   0.1920000
        k(   12) = (  -0.5000000  -0.7000000  -0.3000000), wk =   0.0960000
        k(   13) = (  -0.1000000  -0.7000000   0.1000000), wk =   0.0960000
        k(   14) = (  -0.3000000   0.3000000   0.3000000), wk =   0.0320000
        k(   15) = (   0.5000000  -0.5000000   1.1000000), wk =   0.0960000
        k(   16) = (   0.3000000  -0.3000000   0.9000000), wk =   0.0960000
        k(   17) = (  -0.3000000  -1.3000000   0.3000000), wk =   0.0960000
        k(   18) = (  -0.5000000  -1.1000000   0.1000000), wk =   0.0960000
        k(   19) = (   0.5000000  -0.5000000  -0.5000000), wk =   0.0160000

     Dense  grid:     6735 G-vectors     FFT dimensions: (  32,  32,  32)

     Estimated max dynamical RAM per process >       6.89 MB

     Initial potential from superposition of free atoms

     starting charge    7.99991, renormalised to    8.00000
     Starting wfcs are    8 randomized atomic wfcs

     total cpu time spent up to now is        0.3 secs

     Self-consistent Calculation

     iteration #  1     ecut=    75.00 Ry     beta= 0.70
     Davidson diagonalization with overlap
     ethr =  1.00E-02,  avg # of iterations =  2.0

     total cpu time spent up to now is        0.6 secs

     total energy              =     -24.06752545 Ry
     estimated scf accuracy    <       0.10697305 Ry

     iteration #  2     ecut=    75.00 Ry     beta= 0.70
     Davidson diagonalization with overlap
     ethr =  1.34E-03,  avg # of iterations =  1.3

     total cpu time spent up to now is        1.3 secs

     total energy              =     -24.07383906 Ry
     estimated scf accuracy    <       0.00370570 Ry

     iteration #  3     ecut=    75.00 Ry     beta= 0.70
     Davidson diagonalization with overlap
     ethr =  4.63E-05,  avg # of iterations =  2.9

     total cpu time spent up to now is        1.5 secs

     total energy              =     -24.07535915 Ry
     estimated scf accuracy    <       0.00008355 Ry

     iteration #  4     ecut=    75.00 Ry     beta= 0.70
     Davidson diagonalization with overlap
     ethr =  1.04E-06,  avg # of iterations =  4.8

     total cpu time spent up to now is        1.9 secs

     total energy              =     -24.07545079 Ry
     estimated scf accuracy    <       0.00001182 Ry

     iteration #  5     ecut=    75.00 Ry     beta= 0.70
     Davidson diagonalization with overlap
     ethr =  1.48E-07,  avg # of iterations =  2.8

     total cpu time spent up to now is        2.2 secs

     total energy              =     -24.07545448 Ry
     estimated scf accuracy    <       0.00000097 Ry

     iteration #  6     ecut=    75.00 Ry     beta= 0.70
     Davidson diagonalization with overlap
     ethr =  1.22E-08,  avg # of iterations =  3.0

     total cpu time spent up to now is        2.4 secs

     total energy              =     -24.07545477 Ry
     estimated scf accuracy    <       0.00000001 Ry

     iteration #  7     ecut=    75.00 Ry     beta= 0.70
     Davidson diagonalization with overlap
     ethr =  1.58E-10,  avg # of iterations =  4.8

     total cpu time spent up to now is        2.7 secs

     End of self-consistent calculation

          k =-0.1000 0.1000 0.1000 (   869 PWs)   bands (ev):

    -7.8748  11.6099  12.8344  12.8344

          k =-0.3000 0.3000-0.1000 (   845 PWs)   bands (ev):

    -6.4184   7.3718   9.9002  12.0431

          k = 0.5000-0.5000 0.7000 (   840 PWs)   bands (ev):

    -3.0260   1.2080   9.2847  10.4048

          k = 0.3000-0.3000 0.5000 (   845 PWs)   bands (ev):

    -4.3063   3.0664   9.9680  10.2084

          k = 0.1000-0.1000 0.3000 (   858 PWs)   bands (ev):

    -7.1430   9.5224  11.0923  11.9431

          k =-0.1000 0.5000 0.1000 (   846 PWs)   bands (ev):

    -5.6961   7.4575   9.2731   9.6371

          k = 0.7000-0.3000 0.9000 (   840 PWs)   bands (ev):

    -2.9203   3.8856   6.5968   8.1192

          k = 0.5000-0.1000 0.7000 (   840 PWs)   bands (ev):

    -1.7132   2.3524   5.4912   8.5235

          k = 0.3000 0.1000 0.5000 (   845 PWs)   bands (ev):

    -4.9910   5.4337   8.1977  10.4887

          k =-0.1000-1.1000 0.1000 (   833 PWs)   bands (ev):

    -0.8726   2.2251   6.2479   7.2327

          k =-0.3000-0.9000-0.1000 (   844 PWs)   bands (ev):

    -0.3712   2.2257   4.9635   6.8794

          k =-0.5000-0.7000-0.3000 (   838 PWs)   bands (ev):

    -1.7519   0.5996   7.9487   9.2441

          k =-0.1000-0.7000 0.1000 (   844 PWs)   bands (ev):

    -3.5762   5.2300   7.3111   7.9315

          k =-0.3000 0.3000 0.3000 (   845 PWs)   bands (ev):

    -5.7034   5.0187  11.1675  11.1675

          k = 0.5000-0.5000 1.1000 (   846 PWs)   bands (ev):

    -3.6192   3.6203   6.7032  10.2894

          k = 0.3000-0.3000 0.9000 (   837 PWs)   bands (ev):

    -0.5010   1.6383   4.6376   8.3848

          k =-0.3000-1.3000 0.3000 (   837 PWs)   bands (ev):

    -2.3464   1.7755   7.5888   8.9492

          k =-0.5000-1.1000 0.1000 (   842 PWs)   bands (ev):

     0.1136   1.9267   4.6705   6.3401

          k = 0.5000-0.5000-0.5000 (   832 PWs)   bands (ev):

    -2.3996  -0.0589  10.4797  10.4797

     highest occupied level (ev):    12.8344

!    total energy              =     -24.07545478 Ry
     estimated scf accuracy    <          3.7E-09 Ry

     The total energy is the sum of the following terms:
     one-electron contribution =       8.19817506 Ry
     hartree contribution      =       1.93641813 Ry
     xc contribution           =      -8.67263503 Ry
     ewald contribution        =     -25.53741295 Ry

     convergence has been achieved in   7 iterations

     Writing output data file ./tmp/diamond.save/

     init_run     :      1.28s CPU      0.21s WALL (       1 calls)
     electrons    :     17.83s CPU      2.48s WALL (       1 calls)

     Called by init_run:
     wfcinit      :      1.18s CPU      0.15s WALL (       1 calls)
     potinit      :      0.03s CPU      0.02s WALL (       1 calls)
     hinit0       :      0.05s CPU      0.03s WALL (       1 calls)

     Called by electrons:
     c_bands      :     17.08s CPU      2.23s WALL (       7 calls)
     sum_band     :      0.52s CPU      0.14s WALL (       7 calls)
     v_of_rho     :      0.24s CPU      0.11s WALL (       8 calls)
     mix_rho      :      0.02s CPU      0.01s WALL (       7 calls)

     Called by c_bands:
     init_us_2    :      0.14s CPU      0.03s WALL (     285 calls)
     cegterg      :     16.79s CPU      2.17s WALL (     133 calls)

     Called by *egterg:
     cdiaghg      :      0.17s CPU      0.02s WALL (     546 calls)
     h_psi        :     17.08s CPU      2.22s WALL (     565 calls)
     g_psi        :      0.03s CPU      0.00s WALL (     413 calls)

     Called by h_psi:
     h_psi:calbec :      5.88s CPU      0.78s WALL (     565 calls)
     vloc_psi     :      6.64s CPU      0.85s WALL (     565 calls)
     add_vuspsi   :      4.50s CPU      0.58s WALL (     565 calls)

     General routines
     calbec       :      5.86s CPU      0.78s WALL (     565 calls)
     fft          :      0.12s CPU      0.06s WALL (      80 calls)
     ffts         :      0.01s CPU      0.00s WALL (       7 calls)
     fftw         :      6.18s CPU      0.83s WALL (    4422 calls)

     Parallel routines

     PWSCF        :     19.29s CPU      2.75s WALL


   This run was terminated on:  11: 9: 1   5Jan2024            

=------------------------------------------------------------------------------=
   JOB DONE.
=------------------------------------------------------------------------------=
