
     Program PWSCF v.6.6 starts on 19Dec2023 at 23:37:22 

     This program is part of the open-source Quantum ESPRESSO suite
     for quantum simulation of materials; please cite
         "P. Giannozzi et al., J. Phys.:Condens. Matter 21 395502 (2009);
         "P. Giannozzi et al., J. Phys.:Condens. Matter 29 465901 (2017);
          URL http://www.quantum-espresso.org", 
     in publications or presentations arising from this work. More details at
     http://www.quantum-espresso.org/quote

     Parallel version (MPI), running on     1 processors

     MPI processes distributed on     1 nodes
     Fft bands division:     nmany     =       1
     Reading input from k-in_7.in

     Current dimensions of program PWSCF are:
     Max number of different atomic species (ntypx) = 10
     Max number of k-points (npk) =  40000
     Max angular momentum in pseudopotentials (lmaxx) =  3

     Subspace diagonalization in iterative solution of the eigenvalue problem:
     a serial algorithm will be used


     G-vector sticks info
     --------------------
     sticks:   dense  smooth     PW     G-vecs:    dense   smooth      PW
     Sum         475     475    163                 6735     6735    1291



     bravais-lattice index     =            2
     lattice parameter (alat)  =       6.7500  a.u.
     unit-cell volume          =      76.8867 (a.u.)^3
     number of atoms/cell      =            2
     number of atomic types    =            1
     number of electrons       =         8.00
     number of Kohn-Sham states=            4
     kinetic-energy cutoff     =      75.0000  Ry
     charge density cutoff     =     300.0000  Ry
     convergence threshold     =      1.0E-08
     mixing beta               =       0.7000
     number of iterations used =            8  plain     mixing
     Exchange-correlation= PBE
                           (   1   4   3   4   0   0   0)

     celldm(1)=   6.750000  celldm(2)=   0.000000  celldm(3)=   0.000000
     celldm(4)=   0.000000  celldm(5)=   0.000000  celldm(6)=   0.000000

     crystal axes: (cart. coord. in units of alat)
               a(1) = (  -0.500000   0.000000   0.500000 )  
               a(2) = (   0.000000   0.500000   0.500000 )  
               a(3) = (  -0.500000   0.500000   0.000000 )  

     reciprocal axes: (cart. coord. in units 2 pi/alat)
               b(1) = ( -1.000000 -1.000000  1.000000 )  
               b(2) = (  1.000000  1.000000  1.000000 )  
               b(3) = ( -1.000000  1.000000 -1.000000 )  


     PseudoPot. # 1 for C  read from file:
     ./C.UPF
     MD5 check sum: ead9220225bd72a2f9a48cc2a638047d
     Pseudo is Norm-conserving + core correction, Zval =  4.0
     Generated using ONCVPSP code by D. R. Hamann
     Using radial grid of 1248 points,  4 beta functions with: 
                l(1) =   0
                l(2) =   0
                l(3) =   1
                l(4) =   1

     atomic species   valence    mass     pseudopotential
        C              4.00    12.01070     C ( 1.00)

     48 Sym. Ops., with inversion, found (24 have fractional translation)



   Cartesian axes

     site n.     atom                  positions (alat units)
         1           C   tau(   1) = (   0.0000000   0.0000000   0.0000000  )
         2           C   tau(   2) = (  -0.2500000   0.2500000   0.2500000  )

     number of k points=    44
                       cart. coord. in units 2pi/alat
        k(    1) = (  -0.0714286   0.0714286   0.0714286), wk =   0.0116618
        k(    2) = (  -0.2142857   0.2142857  -0.0714286), wk =   0.0349854
        k(    3) = (  -0.3571429   0.3571429  -0.2142857), wk =   0.0349854
        k(    4) = (   0.5000000  -0.5000000   0.6428571), wk =   0.0349854
        k(    5) = (   0.3571429  -0.3571429   0.5000000), wk =   0.0349854
        k(    6) = (   0.2142857  -0.2142857   0.3571429), wk =   0.0349854
        k(    7) = (   0.0714286  -0.0714286   0.2142857), wk =   0.0349854
        k(    8) = (  -0.0714286   0.3571429   0.0714286), wk =   0.0349854
        k(    9) = (  -0.2142857   0.5000000  -0.0714286), wk =   0.0699708
        k(   10) = (   0.6428571  -0.3571429   0.7857143), wk =   0.0699708
        k(   11) = (   0.5000000  -0.2142857   0.6428571), wk =   0.0699708
        k(   12) = (   0.3571429  -0.0714286   0.5000000), wk =   0.0699708
        k(   13) = (   0.2142857   0.0714286   0.3571429), wk =   0.0699708
        k(   14) = (  -0.0714286   0.6428571   0.0714286), wk =   0.0349854
        k(   15) = (   0.7857143  -0.2142857   0.9285714), wk =   0.0699708
        k(   16) = (   0.6428571  -0.0714286   0.7857143), wk =   0.0699708
        k(   17) = (   0.5000000   0.0714286   0.6428571), wk =   0.0699708
        k(   18) = (   0.3571429   0.2142857   0.5000000), wk =   0.0699708
        k(   19) = (  -0.0714286  -1.0714286   0.0714286), wk =   0.0349854
        k(   20) = (  -0.2142857  -0.9285714  -0.0714286), wk =   0.0699708
        k(   21) = (  -0.3571429  -0.7857143  -0.2142857), wk =   0.0699708
        k(   22) = (  -0.5000000  -0.6428571  -0.3571429), wk =   0.0349854
        k(   23) = (  -0.0714286  -0.7857143   0.0714286), wk =   0.0349854
        k(   24) = (  -0.2142857  -0.6428571  -0.0714286), wk =   0.0699708
        k(   25) = (  -0.0714286  -0.5000000   0.0714286), wk =   0.0349854
        k(   26) = (  -0.2142857   0.2142857   0.2142857), wk =   0.0116618
        k(   27) = (  -0.3571429   0.3571429   0.0714286), wk =   0.0349854
        k(   28) = (   0.5000000  -0.5000000   0.9285714), wk =   0.0349854
        k(   29) = (   0.3571429  -0.3571429   0.7857143), wk =   0.0349854
        k(   30) = (   0.2142857  -0.2142857   0.6428571), wk =   0.0349854
        k(   31) = (  -0.2142857   0.5000000   0.2142857), wk =   0.0349854
        k(   32) = (   0.6428571  -0.3571429   1.0714286), wk =   0.0699708
        k(   33) = (   0.5000000  -0.2142857   0.9285714), wk =   0.0699708
        k(   34) = (   0.3571429  -0.0714286   0.7857143), wk =   0.0699708
        k(   35) = (  -0.2142857  -1.2142857   0.2142857), wk =   0.0349854
        k(   36) = (  -0.3571429  -1.0714286   0.0714286), wk =   0.0699708
        k(   37) = (  -0.5000000  -0.9285714  -0.0714286), wk =   0.0349854
        k(   38) = (  -0.2142857  -0.9285714   0.2142857), wk =   0.0349854
        k(   39) = (  -0.3571429   0.3571429   0.3571429), wk =   0.0116618
        k(   40) = (   0.5000000  -0.5000000   1.2142857), wk =   0.0349854
        k(   41) = (   0.3571429  -0.3571429   1.0714286), wk =   0.0349854
        k(   42) = (  -0.3571429  -1.3571429   0.3571429), wk =   0.0349854
        k(   43) = (  -0.5000000  -1.2142857   0.2142857), wk =   0.0349854
        k(   44) = (   0.5000000  -0.5000000  -0.5000000), wk =   0.0058309

     Dense  grid:     6735 G-vectors     FFT dimensions: (  32,  32,  32)

     Estimated max dynamical RAM per process >       8.18 MB

     Initial potential from superposition of free atoms

     starting charge    7.99991, renormalised to    8.00000
     Starting wfcs are    8 randomized atomic wfcs

     total cpu time spent up to now is        0.3 secs

     Self-consistent Calculation

     iteration #  1     ecut=    75.00 Ry     beta= 0.70
     Davidson diagonalization with overlap
     ethr =  1.00E-02,  avg # of iterations =  2.0

     total cpu time spent up to now is        0.7 secs

     total energy              =     -24.06750287 Ry
     estimated scf accuracy    <       0.10702649 Ry

     iteration #  2     ecut=    75.00 Ry     beta= 0.70
     Davidson diagonalization with overlap
     ethr =  1.34E-03,  avg # of iterations =  1.4

     total cpu time spent up to now is        0.9 secs

     total energy              =     -24.07385420 Ry
     estimated scf accuracy    <       0.00369566 Ry

     iteration #  3     ecut=    75.00 Ry     beta= 0.70
     Davidson diagonalization with overlap
     ethr =  4.62E-05,  avg # of iterations =  2.8

     total cpu time spent up to now is        1.4 secs

     total energy              =     -24.07533807 Ry
     estimated scf accuracy    <       0.00008508 Ry

     iteration #  4     ecut=    75.00 Ry     beta= 0.70
     Davidson diagonalization with overlap
     ethr =  1.06E-06,  avg # of iterations =  5.1

     total cpu time spent up to now is        1.8 secs

     total energy              =     -24.07544502 Ry
     estimated scf accuracy    <       0.00001253 Ry

     iteration #  5     ecut=    75.00 Ry     beta= 0.70
     Davidson diagonalization with overlap
     ethr =  1.57E-07,  avg # of iterations =  2.5

     total cpu time spent up to now is        2.2 secs

     total energy              =     -24.07544817 Ry
     estimated scf accuracy    <       0.00000068 Ry

     iteration #  6     ecut=    75.00 Ry     beta= 0.70
     Davidson diagonalization with overlap
     ethr =  8.54E-09,  avg # of iterations =  3.7

     total cpu time spent up to now is        2.6 secs

     total energy              =     -24.07544843 Ry
     estimated scf accuracy    <       0.00000001 Ry

     iteration #  7     ecut=    75.00 Ry     beta= 0.70
     Davidson diagonalization with overlap
     ethr =  1.39E-10,  avg # of iterations =  4.5

     total cpu time spent up to now is        3.0 secs

     End of self-consistent calculation

          k =-0.0714 0.0714 0.0714 (   872 PWs)   bands (ev):

    -8.0096  12.3498  13.0375  13.0375

          k =-0.2143 0.2143-0.0714 (   855 PWs)   bands (ev):

    -7.2621   9.5314  11.1221  12.6147

          k =-0.3571 0.3571-0.2143 (   844 PWs)   bands (ev):

    -5.4277   4.7885  10.1037  11.3643

          k = 0.5000-0.5000 0.6429 (   838 PWs)   bands (ev):

    -2.7881   0.6583   9.8395  10.4386

          k = 0.3571-0.3571 0.5000 (   844 PWs)   bands (ev):

    -3.6891   1.8623  10.1912  10.3316

          k = 0.2143-0.2143 0.3571 (   851 PWs)   bands (ev):

    -6.1541   6.3605  10.7220  11.4201

          k = 0.0714-0.0714 0.2143 (   856 PWs)   bands (ev):

    -7.6350  10.9968  11.9175  12.5789

          k =-0.0714 0.3571 0.0714 (   856 PWs)   bands (ev):

    -6.8899   9.4774  10.5119  11.2496

          k =-0.2143 0.5000-0.0714 (   847 PWs)   bands (ev):

    -5.4211   6.6163   8.5385  10.2195

          k = 0.6429-0.3571 0.7857 (   838 PWs)   bands (ev):

    -2.9885   2.4366   7.9051   9.1171

          k = 0.5000-0.2143 0.6429 (   841 PWs)   bands (ev):

    -2.1150   1.3036   7.3700   9.3586

          k = 0.3571-0.0714 0.5000 (   847 PWs)   bands (ev):

    -4.7058   5.2233   7.4234  10.5921

          k = 0.2143 0.0714 0.3571 (   853 PWs)   bands (ev):

    -6.5208   8.0150   9.8167  11.7791

          k =-0.0714 0.6429 0.0714 (   844 PWs)   bands (ev):

    -4.3304   6.2370   7.9511   8.1894

          k = 0.7857-0.2143 0.9286 (   844 PWs)   bands (ev):

    -2.2371   3.8158   6.2336   7.3595

          k = 0.6429-0.0714 0.7857 (   837 PWs)   bands (ev):

    -0.1618   1.7815   4.3160   7.7956

          k = 0.5000 0.0714 0.6429 (   844 PWs)   bands (ev):

    -2.3243   2.9904   5.4175   9.1294

          k = 0.3571 0.2143 0.5000 (   844 PWs)   bands (ev):

    -4.3590   3.4553   9.0949  10.5038

          k =-0.0714-1.0714 0.0714 (   826 PWs)   bands (ev):

    -0.5122   1.7372   6.5749   7.1149

          k =-0.2143-0.9286-0.0714 (   834 PWs)   bands (ev):

    -0.2502   1.8668   5.5967   6.8944

          k =-0.3571-0.7857-0.2143 (   844 PWs)   bands (ev):

    -1.4316   1.8095   6.1356   8.1846

          k =-0.5000-0.6429-0.3571 (   842 PWs)   bands (ev):

    -2.0679   0.2828   9.0113   9.8371

          k =-0.0714-0.7857 0.0714 (   836 PWs)   bands (ev):

    -2.5587   4.0641   7.0058   7.4773

          k =-0.2143-0.6429-0.0714 (   844 PWs)   bands (ev):

    -3.9820   5.3148   7.3615   8.4990

          k =-0.0714-0.5000 0.0714 (   843 PWs)   bands (ev):

    -5.7830   7.9675   9.2218   9.5153

          k =-0.2143 0.2143 0.2143 (   854 PWs)   bands (ev):

    -6.8911   7.9242  11.8342  11.8342

          k =-0.3571 0.3571 0.0714 (   843 PWs)   bands (ev):

    -5.7882   6.5414   8.6118  11.6582

          k = 0.5000-0.5000 0.9286 (   844 PWs)   bands (ev):

    -3.6578   3.9823   6.3233  10.2805

          k = 0.3571-0.3571 0.7857 (   837 PWs)   bands (ev):

    -1.4124   0.9255   6.7274   9.1043

          k = 0.2143-0.2143 0.6429 (   845 PWs)   bands (ev):

    -3.6424   3.8826   8.0111   8.7041

          k =-0.2143 0.5000 0.2143 (   841 PWs)   bands (ev):

    -5.0632   4.9977   9.6211   9.9912

          k = 0.6429-0.3571 1.0714 (   843 PWs)   bands (ev):

    -3.2999   4.1144   6.4000   8.8907

          k = 0.5000-0.2143 0.9286 (   839 PWs)   bands (ev):

    -0.8246   2.2946   4.8038   7.4329

          k = 0.3571-0.0714 0.7857 (   843 PWs)   bands (ev):

    -1.6252   3.1380   5.5240   7.1848

          k =-0.2143-1.2143 0.2143 (   840 PWs)   bands (ev):

    -1.9408   2.9474   5.9509   8.0573

          k =-0.3571-1.0714 0.0714 (   842 PWs)   bands (ev):

     0.1828   1.9540   4.7997   6.2682

          k =-0.5000-0.9286-0.0714 (   850 PWs)   bands (ev):

     0.4569   1.8998   4.5640   5.9141

          k =-0.2143-0.9286 0.2143 (   840 PWs)   bands (ev):

    -0.0986   1.8207   4.5369   7.7248

          k =-0.3571 0.3571 0.3571 (   848 PWs)   bands (ev):

    -4.7174   3.1775  10.8351  10.8351

          k = 0.5000-0.5000 1.2143 (   843 PWs)   bands (ev):

    -3.3418   2.1761   8.2534  10.3495

          k = 0.3571-0.3571 1.0714 (   843 PWs)   bands (ev):

    -1.1649   2.1403   4.6466   8.8516

          k =-0.3571-1.3571 0.3571 (   840 PWs)   bands (ev):

    -2.4454   0.9757   8.7884   9.5754

          k =-0.5000-1.2143 0.2143 (   836 PWs)   bands (ev):

    -1.0880   1.2210   6.3002   8.0917

          k = 0.5000-0.5000-0.5000 (   832 PWs)   bands (ev):

    -2.3994  -0.0587  10.4799  10.4799

     highest occupied level (ev):    13.0375

!    total energy              =     -24.07544844 Ry
     estimated scf accuracy    <          6.1E-10 Ry

     The total energy is the sum of the following terms:
     one-electron contribution =       8.19818414 Ry
     hartree contribution      =       1.93641212 Ry
     xc contribution           =      -8.67263176 Ry
     ewald contribution        =     -25.53741295 Ry

     convergence has been achieved in   7 iterations

     Writing output data file ./tmp/diamond.save/

     init_run     :      2.23s CPU      0.29s WALL (       1 calls)
     electrons    :     24.18s CPU      2.64s WALL (       1 calls)

     Called by init_run:
     wfcinit      :      2.11s CPU      0.22s WALL (       1 calls)
     potinit      :      0.04s CPU      0.02s WALL (       1 calls)
     hinit0       :      0.07s CPU      0.04s WALL (       1 calls)

     Called by electrons:
     c_bands      :     22.92s CPU      2.25s WALL (       7 calls)
     sum_band     :      1.11s CPU      0.31s WALL (       7 calls)
     v_of_rho     :      0.18s CPU      0.09s WALL (       8 calls)
     mix_rho      :      0.01s CPU      0.01s WALL (       7 calls)

     Called by c_bands:
     init_us_2    :      0.36s CPU      0.06s WALL (     660 calls)
     cegterg      :     21.73s CPU      2.13s WALL (     308 calls)

     Called by *egterg:
     cdiaghg      :      0.25s CPU      0.03s WALL (    1273 calls)
     h_psi        :     22.20s CPU      2.18s WALL (    1317 calls)
     g_psi        :      0.05s CPU      0.01s WALL (     965 calls)

     Called by h_psi:
     h_psi:calbec :      1.81s CPU      0.18s WALL (    1317 calls)
     vloc_psi     :     19.01s CPU      1.86s WALL (    1317 calls)
     add_vuspsi   :      1.23s CPU      0.13s WALL (    1317 calls)

     General routines
     calbec       :      1.79s CPU      0.17s WALL (    1317 calls)
     fft          :      0.08s CPU      0.05s WALL (      80 calls)
     ffts         :      0.01s CPU      0.00s WALL (       7 calls)
     fftw         :     17.19s CPU      1.80s WALL (   10154 calls)

     Parallel routines

     PWSCF        :     26.57s CPU      3.02s WALL


   This run was terminated on:  23:37:25  19Dec2023            

=------------------------------------------------------------------------------=
   JOB DONE.
=------------------------------------------------------------------------------=
