
     Program PWSCF v.6.6 starts on 19Dec2023 at 23:37:17 

     This program is part of the open-source Quantum ESPRESSO suite
     for quantum simulation of materials; please cite
         "P. Giannozzi et al., J. Phys.:Condens. Matter 21 395502 (2009);
         "P. Giannozzi et al., J. Phys.:Condens. Matter 29 465901 (2017);
          URL http://www.quantum-espresso.org", 
     in publications or presentations arising from this work. More details at
     http://www.quantum-espresso.org/quote

     Parallel version (MPI), running on     1 processors

     MPI processes distributed on     1 nodes
     Fft bands division:     nmany     =       1
     Reading input from k-in_3.in

     Current dimensions of program PWSCF are:
     Max number of different atomic species (ntypx) = 10
     Max number of k-points (npk) =  40000
     Max angular momentum in pseudopotentials (lmaxx) =  3

     Subspace diagonalization in iterative solution of the eigenvalue problem:
     a serial algorithm will be used


     G-vector sticks info
     --------------------
     sticks:   dense  smooth     PW     G-vecs:    dense   smooth      PW
     Sum         475     475    151                 6735     6735    1243



     bravais-lattice index     =            2
     lattice parameter (alat)  =       6.7500  a.u.
     unit-cell volume          =      76.8867 (a.u.)^3
     number of atoms/cell      =            2
     number of atomic types    =            1
     number of electrons       =         8.00
     number of Kohn-Sham states=            4
     kinetic-energy cutoff     =      75.0000  Ry
     charge density cutoff     =     300.0000  Ry
     convergence threshold     =      1.0E-08
     mixing beta               =       0.7000
     number of iterations used =            8  plain     mixing
     Exchange-correlation= PBE
                           (   1   4   3   4   0   0   0)

     celldm(1)=   6.750000  celldm(2)=   0.000000  celldm(3)=   0.000000
     celldm(4)=   0.000000  celldm(5)=   0.000000  celldm(6)=   0.000000

     crystal axes: (cart. coord. in units of alat)
               a(1) = (  -0.500000   0.000000   0.500000 )  
               a(2) = (   0.000000   0.500000   0.500000 )  
               a(3) = (  -0.500000   0.500000   0.000000 )  

     reciprocal axes: (cart. coord. in units 2 pi/alat)
               b(1) = ( -1.000000 -1.000000  1.000000 )  
               b(2) = (  1.000000  1.000000  1.000000 )  
               b(3) = ( -1.000000  1.000000 -1.000000 )  


     PseudoPot. # 1 for C  read from file:
     ./C.UPF
     MD5 check sum: ead9220225bd72a2f9a48cc2a638047d
     Pseudo is Norm-conserving + core correction, Zval =  4.0
     Generated using ONCVPSP code by D. R. Hamann
     Using radial grid of 1248 points,  4 beta functions with: 
                l(1) =   0
                l(2) =   0
                l(3) =   1
                l(4) =   1

     atomic species   valence    mass     pseudopotential
        C              4.00    12.01070     C ( 1.00)

     48 Sym. Ops., with inversion, found (24 have fractional translation)



   Cartesian axes

     site n.     atom                  positions (alat units)
         1           C   tau(   1) = (   0.0000000   0.0000000   0.0000000  )
         2           C   tau(   2) = (  -0.2500000   0.2500000   0.2500000  )

     number of k points=     6
                       cart. coord. in units 2pi/alat
        k(    1) = (  -0.1666667   0.1666667   0.1666667), wk =   0.1481481
        k(    2) = (   0.5000000  -0.5000000   0.8333333), wk =   0.4444444
        k(    3) = (   0.1666667  -0.1666667   0.5000000), wk =   0.4444444
        k(    4) = (  -0.1666667  -1.1666667   0.1666667), wk =   0.4444444
        k(    5) = (  -0.5000000  -0.8333333  -0.1666667), wk =   0.4444444
        k(    6) = (   0.5000000  -0.5000000  -0.5000000), wk =   0.0740741

     Dense  grid:     6735 G-vectors     FFT dimensions: (  32,  32,  32)

     Estimated max dynamical RAM per process >       6.22 MB

     Initial potential from superposition of free atoms

     starting charge    7.99991, renormalised to    8.00000
     Starting wfcs are    8 randomized atomic wfcs

     total cpu time spent up to now is        0.2 secs

     Self-consistent Calculation

     iteration #  1     ecut=    75.00 Ry     beta= 0.70
     Davidson diagonalization with overlap
     ethr =  1.00E-02,  avg # of iterations =  2.0

     total cpu time spent up to now is        0.2 secs

     total energy              =     -24.06736714 Ry
     estimated scf accuracy    <       0.10716658 Ry

     iteration #  2     ecut=    75.00 Ry     beta= 0.70
     Davidson diagonalization with overlap
     ethr =  1.34E-03,  avg # of iterations =  1.3

     total cpu time spent up to now is        0.3 secs

     total energy              =     -24.07368884 Ry
     estimated scf accuracy    <       0.00370296 Ry

     iteration #  3     ecut=    75.00 Ry     beta= 0.70
     Davidson diagonalization with overlap
     ethr =  4.63E-05,  avg # of iterations =  3.0

     total cpu time spent up to now is        0.3 secs

     total energy              =     -24.07519484 Ry
     estimated scf accuracy    <       0.00008510 Ry

     iteration #  4     ecut=    75.00 Ry     beta= 0.70
     Davidson diagonalization with overlap
     ethr =  1.06E-06,  avg # of iterations =  4.7

     total cpu time spent up to now is        0.4 secs

     total energy              =     -24.07528071 Ry
     estimated scf accuracy    <       0.00001327 Ry

     iteration #  5     ecut=    75.00 Ry     beta= 0.70
     Davidson diagonalization with overlap
     ethr =  1.66E-07,  avg # of iterations =  2.3

     total cpu time spent up to now is        0.4 secs

     total energy              =     -24.07528389 Ry
     estimated scf accuracy    <       0.00000100 Ry

     iteration #  6     ecut=    75.00 Ry     beta= 0.70
     Davidson diagonalization with overlap
     ethr =  1.25E-08,  avg # of iterations =  3.3

     total cpu time spent up to now is        0.5 secs

     total energy              =     -24.07528418 Ry
     estimated scf accuracy    <       0.00000001 Ry

     iteration #  7     ecut=    75.00 Ry     beta= 0.70
     Davidson diagonalization with overlap
     ethr =  1.41E-10,  avg # of iterations =  5.2

     total cpu time spent up to now is        0.6 secs

     End of self-consistent calculation

          k =-0.1667 0.1667 0.1667 (   854 PWs)   bands (ev):

    -7.3854   9.5349  12.2601  12.2601

          k = 0.5000-0.5000 0.8333 (   848 PWs)   bands (ev):

    -3.4791   2.7658   7.6187  10.3222

          k = 0.1667-0.1667 0.5000 (   847 PWs)   bands (ev):

    -5.3805   6.0722   9.4536   9.8591

          k =-0.1667-1.1667 0.1667 (   842 PWs)   bands (ev):

    -1.5685   3.0716   5.6507   7.6515

          k =-0.5000-0.8333-0.1667 (   842 PWs)   bands (ev):

    -0.6260   1.5903   5.4753   7.3711

          k = 0.5000-0.5000-0.5000 (   832 PWs)   bands (ev):

    -2.3984  -0.0578  10.4812  10.4812

     highest occupied level (ev):    12.2601

!    total energy              =     -24.07528420 Ry
     estimated scf accuracy    <          5.0E-10 Ry

     The total energy is the sum of the following terms:
     one-electron contribution =       8.19797424 Ry
     hartree contribution      =       1.93711189 Ry
     xc contribution           =      -8.67295739 Ry
     ewald contribution        =     -25.53741295 Ry

     convergence has been achieved in   7 iterations

     Writing output data file ./tmp/diamond.save/

     init_run     :      0.42s CPU      0.09s WALL (       1 calls)
     electrons    :      3.69s CPU      0.42s WALL (       1 calls)

     Called by init_run:
     wfcinit      :      0.32s CPU      0.03s WALL (       1 calls)
     potinit      :      0.03s CPU      0.02s WALL (       1 calls)
     hinit0       :      0.07s CPU      0.04s WALL (       1 calls)

     Called by electrons:
     c_bands      :      2.75s CPU      0.29s WALL (       7 calls)
     sum_band     :      0.54s CPU      0.05s WALL (       7 calls)
     v_of_rho     :      0.40s CPU      0.09s WALL (       8 calls)
     mix_rho      :      0.01s CPU      0.01s WALL (       7 calls)

     Called by c_bands:
     init_us_2    :      0.07s CPU      0.01s WALL (      90 calls)
     cegterg      :      2.66s CPU      0.27s WALL (      42 calls)

     Called by *egterg:
     cdiaghg      :      0.03s CPU      0.00s WALL (     173 calls)
     h_psi        :      2.82s CPU      0.28s WALL (     179 calls)
     g_psi        :      0.02s CPU      0.00s WALL (     131 calls)

     Called by h_psi:
     h_psi:calbec :      0.24s CPU      0.02s WALL (     179 calls)
     vloc_psi     :      2.42s CPU      0.25s WALL (     179 calls)
     add_vuspsi   :      0.14s CPU      0.01s WALL (     179 calls)

     General routines
     calbec       :      0.24s CPU      0.02s WALL (     179 calls)
     fft          :      0.21s CPU      0.04s WALL (      80 calls)
     ffts         :      0.05s CPU      0.00s WALL (       7 calls)
     fftw         :      2.42s CPU      0.24s WALL (    1386 calls)

     Parallel routines

     PWSCF        :      4.24s CPU      0.59s WALL


   This run was terminated on:  23:37:18  19Dec2023            

=------------------------------------------------------------------------------=
   JOB DONE.
=------------------------------------------------------------------------------=
