
     Program PWSCF v.6.6 starts on  5Jan2024 at 11: 9: 9 

     This program is part of the open-source Quantum ESPRESSO suite
     for quantum simulation of materials; please cite
         "P. Giannozzi et al., J. Phys.:Condens. Matter 21 395502 (2009);
         "P. Giannozzi et al., J. Phys.:Condens. Matter 29 465901 (2017);
          URL http://www.quantum-espresso.org", 
     in publications or presentations arising from this work. More details at
     http://www.quantum-espresso.org/quote

     Parallel version (MPI), running on     1 processors

     MPI processes distributed on     1 nodes
     Fft bands division:     nmany     =       1
     Reading input from k-in_8.in

     Current dimensions of program PWSCF are:
     Max number of different atomic species (ntypx) = 10
     Max number of k-points (npk) =  40000
     Max angular momentum in pseudopotentials (lmaxx) =  3

     Subspace diagonalization in iterative solution of the eigenvalue problem:
     a serial algorithm will be used


     G-vector sticks info
     --------------------
     sticks:   dense  smooth     PW     G-vecs:    dense   smooth      PW
     Sum         475     475    163                 6735     6735    1291



     bravais-lattice index     =            2
     lattice parameter (alat)  =       6.7500  a.u.
     unit-cell volume          =      76.8867 (a.u.)^3
     number of atoms/cell      =            2
     number of atomic types    =            1
     number of electrons       =         8.00
     number of Kohn-Sham states=            4
     kinetic-energy cutoff     =      75.0000  Ry
     charge density cutoff     =     300.0000  Ry
     convergence threshold     =      1.0E-08
     mixing beta               =       0.7000
     number of iterations used =            8  plain     mixing
     Exchange-correlation= PBE
                           (   1   4   3   4   0   0   0)

     celldm(1)=   6.750000  celldm(2)=   0.000000  celldm(3)=   0.000000
     celldm(4)=   0.000000  celldm(5)=   0.000000  celldm(6)=   0.000000

     crystal axes: (cart. coord. in units of alat)
               a(1) = (  -0.500000   0.000000   0.500000 )  
               a(2) = (   0.000000   0.500000   0.500000 )  
               a(3) = (  -0.500000   0.500000   0.000000 )  

     reciprocal axes: (cart. coord. in units 2 pi/alat)
               b(1) = ( -1.000000 -1.000000  1.000000 )  
               b(2) = (  1.000000  1.000000  1.000000 )  
               b(3) = ( -1.000000  1.000000 -1.000000 )  


     PseudoPot. # 1 for C  read from file:
     ./C.UPF
     MD5 check sum: ead9220225bd72a2f9a48cc2a638047d
     Pseudo is Norm-conserving + core correction, Zval =  4.0
     Generated using ONCVPSP code by D. R. Hamann
     Using radial grid of 1248 points,  4 beta functions with: 
                l(1) =   0
                l(2) =   0
                l(3) =   1
                l(4) =   1

     atomic species   valence    mass     pseudopotential
        C              4.00    12.01070     C ( 1.00)

     48 Sym. Ops., with inversion, found (24 have fractional translation)



   Cartesian axes

     site n.     atom                  positions (alat units)
         1           C   tau(   1) = (   0.0000000   0.0000000   0.0000000  )
         2           C   tau(   2) = (  -0.2500000   0.2500000   0.2500000  )

     number of k points=    60
                       cart. coord. in units 2pi/alat
        k(    1) = (  -0.0625000   0.0625000   0.0625000), wk =   0.0078125
        k(    2) = (  -0.1875000   0.1875000  -0.0625000), wk =   0.0234375
        k(    3) = (  -0.3125000   0.3125000  -0.1875000), wk =   0.0234375
        k(    4) = (  -0.4375000   0.4375000  -0.3125000), wk =   0.0234375
        k(    5) = (   0.4375000  -0.4375000   0.5625000), wk =   0.0234375
        k(    6) = (   0.3125000  -0.3125000   0.4375000), wk =   0.0234375
        k(    7) = (   0.1875000  -0.1875000   0.3125000), wk =   0.0234375
        k(    8) = (   0.0625000  -0.0625000   0.1875000), wk =   0.0234375
        k(    9) = (  -0.0625000   0.3125000   0.0625000), wk =   0.0234375
        k(   10) = (  -0.1875000   0.4375000  -0.0625000), wk =   0.0468750
        k(   11) = (  -0.3125000   0.5625000  -0.1875000), wk =   0.0468750
        k(   12) = (   0.5625000  -0.3125000   0.6875000), wk =   0.0468750
        k(   13) = (   0.4375000  -0.1875000   0.5625000), wk =   0.0468750
        k(   14) = (   0.3125000  -0.0625000   0.4375000), wk =   0.0468750
        k(   15) = (   0.1875000   0.0625000   0.3125000), wk =   0.0468750
        k(   16) = (  -0.0625000   0.5625000   0.0625000), wk =   0.0234375
        k(   17) = (  -0.1875000   0.6875000  -0.0625000), wk =   0.0468750
        k(   18) = (   0.6875000  -0.1875000   0.8125000), wk =   0.0468750
        k(   19) = (   0.5625000  -0.0625000   0.6875000), wk =   0.0468750
        k(   20) = (   0.4375000   0.0625000   0.5625000), wk =   0.0468750
        k(   21) = (   0.3125000   0.1875000   0.4375000), wk =   0.0468750
        k(   22) = (  -0.0625000   0.8125000   0.0625000), wk =   0.0234375
        k(   23) = (   0.8125000  -0.0625000   0.9375000), wk =   0.0468750
        k(   24) = (   0.6875000   0.0625000   0.8125000), wk =   0.0468750
        k(   25) = (   0.5625000   0.1875000   0.6875000), wk =   0.0468750
        k(   26) = (   0.4375000   0.3125000   0.5625000), wk =   0.0468750
        k(   27) = (  -0.0625000  -0.9375000   0.0625000), wk =   0.0234375
        k(   28) = (  -0.1875000  -0.8125000  -0.0625000), wk =   0.0468750
        k(   29) = (  -0.3125000  -0.6875000  -0.1875000), wk =   0.0468750
        k(   30) = (  -0.0625000  -0.6875000   0.0625000), wk =   0.0234375
        k(   31) = (  -0.1875000  -0.5625000  -0.0625000), wk =   0.0468750
        k(   32) = (  -0.0625000  -0.4375000   0.0625000), wk =   0.0234375
        k(   33) = (  -0.1875000   0.1875000   0.1875000), wk =   0.0078125
        k(   34) = (  -0.3125000   0.3125000   0.0625000), wk =   0.0234375
        k(   35) = (  -0.4375000   0.4375000  -0.0625000), wk =   0.0234375
        k(   36) = (   0.4375000  -0.4375000   0.8125000), wk =   0.0234375
        k(   37) = (   0.3125000  -0.3125000   0.6875000), wk =   0.0234375
        k(   38) = (   0.1875000  -0.1875000   0.5625000), wk =   0.0234375
        k(   39) = (  -0.1875000   0.4375000   0.1875000), wk =   0.0234375
        k(   40) = (  -0.3125000   0.5625000   0.0625000), wk =   0.0468750
        k(   41) = (   0.5625000  -0.3125000   0.9375000), wk =   0.0468750
        k(   42) = (   0.4375000  -0.1875000   0.8125000), wk =   0.0468750
        k(   43) = (   0.3125000  -0.0625000   0.6875000), wk =   0.0468750
        k(   44) = (  -0.1875000   0.6875000   0.1875000), wk =   0.0234375
        k(   45) = (   0.6875000  -0.1875000   1.0625000), wk =   0.0468750
        k(   46) = (   0.5625000  -0.0625000   0.9375000), wk =   0.0468750
        k(   47) = (   0.4375000   0.0625000   0.8125000), wk =   0.0468750
        k(   48) = (  -0.1875000  -1.0625000   0.1875000), wk =   0.0234375
        k(   49) = (  -0.3125000  -0.9375000   0.0625000), wk =   0.0468750
        k(   50) = (  -0.1875000  -0.8125000   0.1875000), wk =   0.0234375
        k(   51) = (  -0.3125000   0.3125000   0.3125000), wk =   0.0078125
        k(   52) = (  -0.4375000   0.4375000   0.1875000), wk =   0.0234375
        k(   53) = (   0.4375000  -0.4375000   1.0625000), wk =   0.0234375
        k(   54) = (   0.3125000  -0.3125000   0.9375000), wk =   0.0234375
        k(   55) = (  -0.3125000   0.5625000   0.3125000), wk =   0.0234375
        k(   56) = (   0.5625000  -0.3125000   1.1875000), wk =   0.0468750
        k(   57) = (   0.4375000  -0.1875000   1.0625000), wk =   0.0468750
        k(   58) = (  -0.3125000  -1.1875000   0.3125000), wk =   0.0234375
        k(   59) = (  -0.4375000   0.4375000   0.4375000), wk =   0.0078125
        k(   60) = (   0.4375000  -0.4375000   1.3125000), wk =   0.0234375

     Dense  grid:     6735 G-vectors     FFT dimensions: (  32,  32,  32)

     Estimated max dynamical RAM per process >       9.00 MB

     Initial potential from superposition of free atoms

     starting charge    7.99991, renormalised to    8.00000
     Starting wfcs are    8 randomized atomic wfcs

     total cpu time spent up to now is        0.8 secs

     Self-consistent Calculation

     iteration #  1     ecut=    75.00 Ry     beta= 0.70
     Davidson diagonalization with overlap
     ethr =  1.00E-02,  avg # of iterations =  2.0

     total cpu time spent up to now is        2.1 secs

     total energy              =     -24.06753114 Ry
     estimated scf accuracy    <       0.10703256 Ry

     iteration #  2     ecut=    75.00 Ry     beta= 0.70
     Davidson diagonalization with overlap
     ethr =  1.34E-03,  avg # of iterations =  1.3

     total cpu time spent up to now is        2.6 secs

     total energy              =     -24.07386257 Ry
     estimated scf accuracy    <       0.00369722 Ry

     iteration #  3     ecut=    75.00 Ry     beta= 0.70
     Davidson diagonalization with overlap
     ethr =  4.62E-05,  avg # of iterations =  2.8

     total cpu time spent up to now is        3.3 secs

     total energy              =     -24.07534169 Ry
     estimated scf accuracy    <       0.00008503 Ry

     iteration #  4     ecut=    75.00 Ry     beta= 0.70
     Davidson diagonalization with overlap
     ethr =  1.06E-06,  avg # of iterations =  5.1

     total cpu time spent up to now is        4.1 secs

     total energy              =     -24.07544512 Ry
     estimated scf accuracy    <       0.00001259 Ry

     iteration #  5     ecut=    75.00 Ry     beta= 0.70
     Davidson diagonalization with overlap
     ethr =  1.57E-07,  avg # of iterations =  2.5

     total cpu time spent up to now is        4.6 secs

     total energy              =     -24.07544834 Ry
     estimated scf accuracy    <       0.00000078 Ry

     iteration #  6     ecut=    75.00 Ry     beta= 0.70
     Davidson diagonalization with overlap
     ethr =  9.69E-09,  avg # of iterations =  3.1

     total cpu time spent up to now is        5.3 secs

     total energy              =     -24.07544859 Ry
     estimated scf accuracy    <       0.00000001 Ry

     iteration #  7     ecut=    75.00 Ry     beta= 0.70
     Davidson diagonalization with overlap
     ethr =  1.67E-10,  avg # of iterations =  4.9

     total cpu time spent up to now is        6.0 secs

     End of self-consistent calculation

          k =-0.0625 0.0625 0.0625 (   872 PWs)   bands (ev):

    -8.0426  12.5496  13.0911  13.0911

          k =-0.1875 0.1875-0.0625 (   853 PWs)   bands (ev):

    -7.4696  10.1949  11.5083  12.7625

          k =-0.3125 0.3125-0.1875 (   844 PWs)   bands (ev):

    -6.0551   6.0505  10.4920  11.6829

          k =-0.4375 0.4375-0.3125 (   843 PWs)   bands (ev):

    -3.8912   2.0937  10.0050  10.7502

          k = 0.4375-0.4375 0.5625 (   841 PWs)   bands (ev):

    -2.4286   0.1628  10.1057  10.2787

          k = 0.3125-0.3125 0.4375 (   842 PWs)   bands (ev):

    -4.6802   3.3410  10.3761  10.7453

          k = 0.1875-0.1875 0.3125 (   851 PWs)   bands (ev):

    -6.6172   7.4506  11.0569  11.7753

          k = 0.0625-0.0625 0.1875 (   867 PWs)   bands (ev):

    -7.7556  11.4318  12.1715  12.7388

          k =-0.0625 0.3125 0.0625 (   860 PWs)   bands (ev):

    -7.1839  10.1162  10.9440  11.6853

          k =-0.1875 0.4375-0.0625 (   847 PWs)   bands (ev):

    -6.0523   7.5775   9.1988  10.8606

          k =-0.3125 0.5625-0.1875 (   844 PWs)   bands (ev):

    -4.1313   3.7358   8.5573   9.7552

          k = 0.5625-0.3125 0.6875 (   837 PWs)   bands (ev):

    -1.9177   0.6691   8.1489   9.3597

          k = 0.4375-0.1875 0.5625 (   841 PWs)   bands (ev):

    -3.3554   2.5529   7.8696  10.0271

          k = 0.3125-0.0625 0.4375 (   845 PWs)   bands (ev):

    -5.4958   6.3147   8.2023  11.1892

          k = 0.1875 0.0625 0.3125 (   853 PWs)   bands (ev):

    -6.9000   8.8591  10.3657  12.1155

          k =-0.0625 0.5625 0.0625 (   842 PWs)   bands (ev):

    -5.2098   7.3813   8.7193   8.7497

          k =-0.1875 0.6875-0.0625 (   840 PWs)   bands (ev):

    -3.5670   5.1160   7.1176   8.0060

          k = 0.6875-0.1875 0.8125 (   842 PWs)   bands (ev):

    -1.3367   2.2780   5.6257   7.9024

          k = 0.5625-0.0625 0.6875 (   842 PWs)   bands (ev):

    -1.4016   2.4439   4.7300   8.6803

          k = 0.4375 0.0625 0.5625 (   840 PWs)   bands (ev):

    -3.5987   4.1194   6.2324   9.9586

          k = 0.3125 0.1875 0.4375 (   848 PWs)   bands (ev):

    -5.2215   4.7932   9.5529  11.0034

          k =-0.0625 0.8125 0.0625 (   838 PWs)   bands (ev):

    -2.2130   3.6347   6.9806   7.3643

          k = 0.8125-0.0625 0.9375 (   836 PWs)   bands (ev):

    -0.1919   1.7013   5.8480   6.9090

          k = 0.6875 0.0625 0.8125 (   838 PWs)   bands (ev):

     0.0606   1.7483   4.2782   7.6083

          k = 0.5625 0.1875 0.6875 (   842 PWs)   bands (ev):

    -1.4229   1.1584   6.4621   8.8991

          k = 0.4375 0.3125 0.5625 (   841 PWs)   bands (ev):

    -2.9081   1.1392   9.3118  10.1322

          k =-0.0625-0.9375 0.0625 (   829 PWs)   bands (ev):

    -0.3926   1.5826   6.6651   7.0858

          k =-0.1875-0.8125-0.0625 (   840 PWs)   bands (ev):

    -1.9709   3.5467   6.2712   7.2413

          k =-0.3125-0.6875-0.1875 (   843 PWs)   bands (ev):

    -2.8137   2.9025   7.2820   8.5642

          k =-0.0625-0.6875 0.0625 (   844 PWs)   bands (ev):

    -3.8296   5.6383   7.6432   7.9141

          k =-0.1875-0.5625-0.0625 (   846 PWs)   bands (ev):

    -4.9360   6.3737   8.1258   9.3362

          k =-0.0625-0.4375 0.0625 (   849 PWs)   bands (ev):

    -6.3325   8.7888   9.7490  10.2395

          k =-0.1875 0.1875 0.1875 (   860 PWs)   bands (ev):

    -7.1845   8.8351  12.0706  12.0706

          k =-0.3125 0.3125 0.0625 (   847 PWs)   bands (ev):

    -6.3350   7.5451   9.3046  12.0285

          k =-0.4375 0.4375-0.0625 (   845 PWs)   bands (ev):

    -4.6721   5.1389   7.1623  10.9154

          k = 0.4375-0.4375 0.8125 (   843 PWs)   bands (ev):

    -2.3925   1.6319   7.1430   9.7625

          k = 0.3125-0.3125 0.6875 (   841 PWs)   bands (ev):

    -2.3786   1.5915   7.8568   9.0880

          k = 0.1875-0.1875 0.5625 (   843 PWs)   bands (ev):

    -4.6652   5.0728   9.0745   9.0762

          k =-0.1875 0.4375 0.1875 (   849 PWs)   bands (ev):

    -5.7738   6.1802  10.0095  10.6744

          k =-0.3125 0.5625 0.0625 (   844 PWs)   bands (ev):

    -4.3943   5.2203   7.2031   9.7928

          k = 0.5625-0.3125 0.9375 (   844 PWs)   bands (ev):

    -2.3094   3.2812   5.4839   8.5002

          k = 0.4375-0.1875 0.8125 (   840 PWs)   bands (ev):

    -0.9149   1.5515   5.7862   7.7284

          k = 0.3125-0.0625 0.6875 (   843 PWs)   bands (ev):

    -3.0517   4.2385   6.3411   8.2063

          k =-0.1875 0.6875 0.1875 (   841 PWs)   bands (ev):

    -3.3106   4.1071   7.2820   8.3322

          k = 0.6875-0.1875 1.0625 (   840 PWs)   bands (ev):

    -1.5064   3.2036   5.5760   6.9353

          k = 0.5625-0.0625 0.9375 (   846 PWs)   bands (ev):

     0.5050   1.8726   4.6147   5.8633

          k = 0.4375 0.0625 0.8125 (   842 PWs)   bands (ev):

    -0.8763   2.5858   4.9439   6.9396

          k =-0.1875-1.0625 0.1875 (   837 PWs)   bands (ev):

    -0.0507   1.7367   4.8183   7.5567

          k =-0.3125-0.9375 0.0625 (   842 PWs)   bands (ev):

     0.1606   1.8460   5.0451   6.3556

          k =-0.1875-0.8125 0.1875 (   842 PWs)   bands (ev):

    -1.7451   3.1069   5.6860   7.8183

          k =-0.3125 0.3125 0.3125 (   848 PWs)   bands (ev):

    -5.4999   4.6064  11.0864  11.0864

          k =-0.4375 0.4375 0.1875 (   844 PWs)   bands (ev):

    -4.4071   3.5609   8.7295  10.8671

          k = 0.4375-0.4375 1.0625 (   847 PWs)   bands (ev):

    -2.5790   3.1722   5.3735   9.6327

          k = 0.3125-0.3125 0.9375 (   839 PWs)   bands (ev):

    -0.4911   1.8799   4.2471   8.4455

          k =-0.3125 0.5625 0.3125 (   841 PWs)   bands (ev):

    -3.6198   2.3149   9.5571   9.6787

          k = 0.5625-0.3125 1.1875 (   840 PWs)   bands (ev):

    -2.1269   1.8342   6.9723   8.7691

          k = 0.4375-0.1875 1.0625 (   843 PWs)   bands (ev):

    -0.2377   1.9928   4.4141   7.2752

          k =-0.3125-1.1875 0.3125 (   843 PWs)   bands (ev):

    -1.1560   1.3323   5.9639   8.6651

          k =-0.4375 0.4375 0.4375 (   847 PWs)   bands (ev):

    -3.1719   0.8915  10.5480  10.5480

          k = 0.4375-0.4375 1.3125 (   842 PWs)   bands (ev):

    -2.1745   0.4233   8.8446   9.9951

     highest occupied level (ev):    13.0911

!    total energy              =     -24.07544861 Ry
     estimated scf accuracy    <          1.4E-09 Ry

     The total energy is the sum of the following terms:
     one-electron contribution =       8.19817522 Ry
     hartree contribution      =       1.93642841 Ry
     xc contribution           =      -8.67263929 Ry
     ewald contribution        =     -25.53741295 Ry

     convergence has been achieved in   7 iterations

     Writing output data file ./tmp/diamond.save/

     init_run     :      4.76s CPU      0.71s WALL (       1 calls)
     electrons    :     40.47s CPU      5.22s WALL (       1 calls)

     Called by init_run:
     wfcinit      :      4.66s CPU      0.66s WALL (       1 calls)
     potinit      :      0.03s CPU      0.02s WALL (       1 calls)
     hinit0       :      0.06s CPU      0.03s WALL (       1 calls)

     Called by electrons:
     c_bands      :     39.26s CPU      4.75s WALL (       7 calls)
     sum_band     :      1.08s CPU      0.40s WALL (       7 calls)
     v_of_rho     :      0.14s CPU      0.08s WALL (       8 calls)
     mix_rho      :      0.01s CPU      0.00s WALL (       7 calls)

     Called by c_bands:
     init_us_2    :      0.59s CPU      0.08s WALL (     900 calls)
     cegterg      :     38.00s CPU      4.59s WALL (     420 calls)

     Called by *egterg:
     cdiaghg      :      0.43s CPU      0.04s WALL (    1728 calls)
     h_psi        :     39.61s CPU      4.90s WALL (    1788 calls)
     g_psi        :      0.09s CPU      0.01s WALL (    1308 calls)

     Called by h_psi:
     h_psi:calbec :     10.03s CPU      1.20s WALL (    1788 calls)
     vloc_psi     :     19.24s CPU      2.43s WALL (    1788 calls)
     add_vuspsi   :     10.18s CPU      1.26s WALL (    1788 calls)

     General routines
     calbec       :     10.00s CPU      1.19s WALL (    1788 calls)
     fft          :      0.06s CPU      0.03s WALL (      80 calls)
     ffts         :      0.01s CPU      0.00s WALL (       7 calls)
     fftw         :     17.15s CPU      2.33s WALL (   13896 calls)

     Parallel routines

     PWSCF        :     45.36s CPU      6.01s WALL


   This run was terminated on:  11: 9:15   5Jan2024            

=------------------------------------------------------------------------------=
   JOB DONE.
=------------------------------------------------------------------------------=
